! TOUCHSTONE file generated by CST MICROWAVE STUDIO
! Date and time: Thu Dec 15 14:07:13 2016
! Project name: PAPER-FEED-NEWREF-1ports-100ohm-LIGHT-cable4-19-2.cst
! Header version: 2015
! Port assignment regex: !\s*Touchstone port\s*([0-9]+)\s*=\s*CST MWS port\s*([0-9]+)\s*\(\"(.*)\"\)(\s*mode\s*([0-9]+))?.*
! Touchstone port assignment:
! Touchstone port 1 = CST MWS port 1 ("")
# MHZ S MA R 100
50                             1        -46.3471  
50.2                    0.999964        -46.6091  
50.4                    0.999902        -46.8719  
50.6                    0.999814        -47.1354  
50.8                      0.9997        -47.3995  
51                      0.999561        -47.6642  
51.2                    0.999398        -47.9294  
51.4                    0.999211        -48.1949  
51.6                    0.999001        -48.4607  
51.8                     0.99877        -48.7267  
52                      0.998517        -48.9929  
52.2                    0.998245        -49.2592  
52.4                    0.997954        -49.5255  
52.6                    0.997647        -49.7918  
52.8                    0.997323         -50.058  
53                      0.996985        -50.3242  
53.2                    0.996634        -50.5901  
53.4                    0.996272         -50.856  
53.6                      0.9959        -51.1216  
53.8                     0.99552         -51.387  
54                      0.995133        -51.6522  
54.2                    0.994741        -51.9171  
54.4                    0.994346        -52.1819  
54.6                     0.99395        -52.4465  
54.8                    0.993553        -52.7108  
55                      0.993159        -52.9751  
55.2                    0.992767        -53.2392  
55.4                     0.99238        -53.5032  
55.6                       0.992        -53.7672  
55.8                    0.991627        -54.0312  
56                      0.991264        -54.2953  
56.2                    0.990911        -54.5596  
56.4                     0.99057        -54.8241  
56.6                    0.990242        -55.0888  
56.8                    0.989928         -55.354  
57                       0.98963        -55.6196  
57.2                    0.989347        -55.8858  
57.4                    0.989081        -56.1527  
57.6                    0.988833        -56.4203  
57.8                    0.988603        -56.6887  
58                      0.988391        -56.9581  
58.2                    0.988199        -57.2286  
58.4                    0.988026        -57.5003  
58.6                    0.987873        -57.7732  
58.8                    0.987739        -58.0476  
59                      0.987624        -58.3234  
59.2                    0.987529        -58.6009  
59.4                    0.987452        -58.8802  
59.6                    0.987394        -59.1612  
59.8                    0.987355        -59.4442  
60                      0.987332        -59.7293  
60.2                    0.987326        -60.0165  
60.4                    0.987336        -60.3061  
60.6                    0.987361        -60.5979  
60.8                    0.987399        -60.8922  
61                       0.98745        -61.1891  
61.2                    0.987512        -61.4885  
61.4                    0.987585        -61.7907  
61.6                    0.987667        -62.0957  
61.8                    0.987756        -62.4035  
62                       0.98785        -62.7142  
62.2                     0.98795         -63.028  
62.4                    0.988052        -63.3447  
62.6                    0.988156        -63.6645  
62.8                    0.988259        -63.9875  
63                      0.988361        -64.3136  
63.2                    0.988459        -64.6429  
63.4                    0.988552        -64.9755  
63.6                    0.988639        -65.3112  
63.8                    0.988716        -65.6503  
64                      0.988784        -65.9926  
64.2                    0.988841        -66.3382  
64.4                    0.988884         -66.687  
64.6                    0.988913        -67.0391  
64.8                    0.988925        -67.3945  
65                       0.98892        -67.7531  
65.2                    0.988897        -68.1149  
65.4                    0.988853        -68.4799  
65.6                    0.988788        -68.8481  
65.8                    0.988701        -69.2194  
66                       0.98859        -69.5938  
66.2                    0.988454        -69.9712  
66.4                    0.988293        -70.3517  
66.6                    0.988106        -70.7352  
66.8                    0.987892        -71.1217  
67                       0.98765         -71.511  
67.2                     0.98738        -71.9032  
67.4                    0.987082        -72.2981  
67.6                    0.986754        -72.6959  
67.8                    0.986397        -73.0964  
68                      0.986011        -73.4995  
68.2                    0.985595        -73.9054  
68.4                    0.985149        -74.3137  
68.6                    0.984674        -74.7247  
68.8                     0.98417        -75.1382  
69                      0.983637        -75.5541  
69.2                    0.983074        -75.9725  
69.4                    0.982484        -76.3934  
69.6                    0.981866        -76.8166  
69.8                     0.98122        -77.2422  
70                      0.980548        -77.6702  
70.2                     0.97985        -78.1006  
70.4                    0.979127        -78.5333  
70.6                    0.978379        -78.9683  
70.8                    0.977608        -79.4057  
71                      0.976813        -79.8455  
71.2                    0.975998        -80.2877  
71.4                    0.975161        -80.7322  
71.6                    0.974304        -81.1792  
71.8                    0.973428        -81.6287  
72                      0.972534        -82.0807  
72.2                    0.971622        -82.5352  
72.4                    0.970695        -82.9924  
72.6                    0.969752        -83.4522  
72.8                    0.968794        -83.9147  
73                      0.967823        -84.3801  
73.2                    0.966839        -84.8484  
73.4                    0.965843        -85.3196  
73.6                    0.964836        -85.7939  
73.8                    0.963817        -86.2714  
74                      0.962789        -86.7522  
74.2                    0.961751        -87.2364  
74.4                    0.960703        -87.7241  
74.6                    0.959647        -88.2154  
74.8                    0.958582        -88.7105  
75                      0.957508        -89.2094  
75.2                    0.956426        -89.7124  
75.4                    0.955335        -90.2196  
75.6                    0.954235        -90.7311  
75.8                    0.953126         -91.247  
76                      0.952008        -91.7676  
76.2                     0.95088        -92.2929  
76.4                    0.949742        -92.8231  
76.6                    0.948592        -93.3585  
76.8                    0.947429        -93.8991  
77                      0.946254         -94.445  
77.2                    0.945064        -94.9966  
77.4                    0.943859        -95.5539  
77.6                    0.942637        -96.1171  
77.8                    0.941397        -96.6863  
78                      0.940137        -97.2617  
78.2                    0.938855        -97.8435  
78.4                     0.93755        -98.4319  
78.6                     0.93622        -99.0269  
78.8                    0.934862        -99.6288  
79                      0.933476        -100.238  
79.2                    0.932057        -100.854  
79.4                    0.930605        -101.477  
79.6                    0.929117        -102.108  
79.8                    0.927591        -102.746  
80                      0.926023        -103.392  
80.2                    0.924412        -104.046  
80.4                    0.922755        -104.708  
80.6                    0.921049        -105.378  
80.8                    0.919292        -106.056  
81                      0.917481        -106.742  
81.2                    0.915613        -107.437  
81.4                    0.913686         -108.14  
81.6                    0.911697        -108.852  
81.8                    0.909642        -109.573  
82                      0.907519        -110.302  
82.2                    0.905327        -111.041  
82.4                    0.903061        -111.788  
82.6                    0.900719        -112.544  
82.8                    0.898298         -113.31  
83                      0.895797        -114.084  
83.2                    0.893212        -114.868  
83.4                    0.890541        -115.661  
83.6                    0.887781        -116.464  
83.8                    0.884931        -117.276  
84                      0.881987        -118.097  
84.2                    0.878948        -118.928  
84.4                    0.875812        -119.768  
84.6                    0.872576        -120.618  
84.8                    0.869239        -121.477  
85                      0.865799        -122.346  
85.2                    0.862254        -123.225  
85.4                    0.858603        -124.114  
85.6                    0.854845        -125.012  
85.8                    0.850977         -125.92  
86                      0.846999        -126.837  
86.2                    0.842909        -127.765  
86.4                    0.838708        -128.702  
86.6                    0.834394        -129.649  
86.8                    0.829966        -130.605  
87                      0.825424        -131.572  
87.2                    0.820767        -132.549  
87.4                    0.815996        -133.535  
87.6                    0.811111        -134.531  
87.8                    0.806111        -135.538  
88                      0.800997        -136.554  
88.2                    0.795769         -137.58  
88.4                    0.790429        -138.617  
88.6                    0.784975        -139.663  
88.8                     0.77941         -140.72  
89                      0.773735        -141.786  
89.2                    0.767951        -142.863  
89.4                    0.762059         -143.95  
89.6                     0.75606        -145.048  
89.8                    0.749957        -146.155  
90                      0.743751        -147.273  
90.2                    0.737444        -148.402  
90.4                    0.731039        -149.541  
90.6                    0.724537        -150.691  
90.8                    0.717941        -151.852  
91                      0.711254        -153.023  
91.2                    0.704478        -154.205  
91.4                    0.697617        -155.399  
91.6                    0.690672        -156.603  
91.8                    0.683648        -157.819  
92                      0.676548        -159.046  
92.2                    0.669375        -160.284  
92.4                    0.662133        -161.534  
92.6                    0.654825        -162.796  
92.8                    0.647455         -164.07  
93                      0.640027        -165.356  
93.2                    0.632545        -166.655  
93.4                    0.625013        -167.966  
93.6                    0.617435         -169.29  
93.8                    0.609817        -170.626  
94                      0.602162        -171.976  
94.2                    0.594474         -173.34  
94.4                     0.58676        -174.717  
94.6                    0.579022        -176.108  
94.8                    0.571267        -177.513  
95                      0.563499        -178.932  
95.2                    0.555723         179.633  
95.4                    0.547944         178.184  
95.6                    0.540168         176.719  
95.8                      0.5324         175.238  
96                      0.524644         173.742  
96.2                    0.516908         172.229  
96.4                    0.509195         170.699  
96.6                    0.501512         169.152  
96.8                    0.493864         167.588  
97                      0.486256         166.005  
97.2                    0.478696         164.405  
97.4                    0.471187         162.786  
97.6                    0.463736         161.148  
97.8                    0.456349          159.49  
98                      0.449031         157.813  
98.2                    0.441789         156.115  
98.4                    0.434628         154.397  
98.6                    0.427554         152.659  
98.8                    0.420573         150.899  
99                       0.41369         149.118  
99.2                    0.406912         147.315  
99.4                    0.400244          145.49  
99.6                    0.393691         143.643  
99.8                     0.38726         141.774  
100                     0.380956         139.882  
100.2                   0.374784         137.968  
100.4                    0.36875         136.031  
100.6                   0.362859         134.072  
100.8                   0.357116          132.09  
101                     0.351525         130.087  
101.2                   0.346093         128.062  
101.4                   0.340821         126.015  
101.6                   0.335717         123.948  
101.8                   0.330782         121.861  
102                     0.326021         119.754  
102.2                   0.321437         117.629  
102.4                   0.317033         115.487  
102.6                   0.312812         113.328  
102.8                   0.308777         111.154  
103                     0.304928         108.966  
103.2                   0.301268         106.765  
103.4                   0.297797         104.554  
103.6                   0.294516         102.334  
103.8                   0.291425         100.107  
104                     0.288524         97.8738  
104.2                   0.285812         95.6376  
104.4                   0.283287            93.4  
104.6                   0.280948          91.163  
104.8                   0.278792         88.9288  
105                     0.276816         86.6995  
105.2                   0.275018         84.4771  
105.4                   0.273393         82.2639  
105.6                   0.271938         80.0619  
105.8                   0.270648          77.873  
106                     0.269518         75.6993  
106.2                   0.268544         73.5426  
106.4                    0.26772         71.4047  
106.6                    0.26704         69.2874  
106.8                   0.266499         67.1921  
107                     0.266092         65.1203  
107.2                   0.265811         63.0735  
107.4                   0.265651         61.0526  
107.6                   0.265606          59.059  
107.8                   0.265669         57.0934  
108                     0.265835         55.1568  
108.2                   0.266098         53.2497  
108.4                   0.266452         51.3728  
108.6                   0.266891         49.5266  
108.8                   0.267408         47.7113  
109                        0.268         45.9272  
109.2                    0.26866         44.1745  
109.4                   0.269383         42.4531  
109.6                   0.270164          40.763  
109.8                   0.270998         39.1042  
110                     0.271881         37.4763  
110.2                   0.272809         35.8792  
110.4                   0.273776         34.3125  
110.6                    0.27478         32.7759  
110.8                   0.275816         31.2689  
111                      0.27688          29.791  
111.2                    0.27797         28.3419  
111.4                   0.279082         26.9209  
111.6                   0.280213         25.5275  
111.8                   0.281361         24.1611  
112                     0.282522         22.8212  
112.2                   0.283695         21.5072  
112.4                   0.284876         20.2183  
112.6                   0.286064         18.9541  
112.8                   0.287257         17.7139  
113                     0.288452         16.4971  
113.2                   0.289649          15.303  
113.4                   0.290844          14.131  
113.6                   0.292038         12.9805  
113.8                   0.293228         11.8509  
114                     0.294413         10.7416  
114.2                   0.295592         9.65195  
114.4                   0.296764         8.58136  
114.6                   0.297927         7.52924  
114.8                   0.299081         6.49506  
115                     0.300224         5.47821  
115.2                   0.301356         4.47811  
115.4                   0.302475         3.49429  
115.6                   0.303581         2.52618  
115.8                   0.304674         1.57328  
116                     0.305752        0.635034  
116.2                   0.306814       -0.289009  
116.4                    0.30786        -1.19934  
116.6                    0.30889        -2.09641  
116.8                   0.309902         -2.9807  
117                     0.310896        -3.85262  
117.2                   0.311871        -4.71265  
117.4                   0.312828        -5.56112  
117.6                   0.313764         -6.3985  
117.8                    0.31468        -7.22515  
118                     0.315575        -8.04144  
118.2                   0.316449        -8.84773  
118.4                     0.3173        -9.64432  
118.6                   0.318129        -10.4316  
118.8                   0.318934        -11.2099  
119                     0.319716        -11.9795  
119.2                   0.320474        -12.7406  
119.4                   0.321207        -13.4936  
119.6                   0.321915        -14.2388  
119.8                   0.322598        -14.9763  
120                     0.323254        -15.7064  
120.2                   0.323883        -16.4295  
120.4                   0.324486        -17.1455  
120.6                   0.325061        -17.8549  
120.8                   0.325609        -18.5577  
121                     0.326128        -19.2542  
121.2                   0.326618        -19.9445  
121.4                    0.32708        -20.6288  
121.6                   0.327512        -21.3074  
121.8                   0.327914        -21.9802  
122                     0.328287        -22.6474  
122.2                   0.328629        -23.3092  
122.4                   0.328941        -23.9657  
122.6                   0.329222         -24.617  
122.8                   0.329472        -25.2632  
123                     0.329691        -25.9045  
123.2                   0.329879        -26.5407  
123.4                   0.330035        -27.1723  
123.6                    0.33016         -27.799  
123.8                   0.330254        -28.4211  
124                     0.330316        -29.0386  
124.2                   0.330346        -29.6516  
124.4                   0.330345        -30.2601  
124.6                   0.330312        -30.8642  
124.8                   0.330248         -31.464  
125                     0.330153        -32.0594  
125.2                   0.330026        -32.6506  
125.4                   0.329869        -33.2375  
125.6                   0.329681        -33.8202  
125.8                   0.329462        -34.3989  
126                     0.329213        -34.9734  
126.2                   0.328934        -35.5439  
126.4                   0.328626        -36.1103  
126.6                   0.328288        -36.6728  
126.8                    0.32792        -37.2313  
127                     0.327525         -37.786  
127.2                   0.327101        -38.3367  
127.4                   0.326649        -38.8837  
127.6                   0.326169        -39.4268  
127.8                   0.325663        -39.9662  
128                      0.32513        -40.5019  
128.2                    0.32457        -41.0339  
128.4                   0.323986        -41.5624  
128.6                   0.323376        -42.0873  
128.8                   0.322741        -42.6087  
129                     0.322082        -43.1266  
129.2                   0.321399        -43.6412  
129.4                   0.320693        -44.1524  
129.6                   0.319965        -44.6604  
129.8                   0.319214        -45.1651  
130                     0.318441        -45.6668  
130.2                   0.317647        -46.1654  
130.4                   0.316832         -46.661  
130.6                   0.315997        -47.1538  
130.8                   0.315141        -47.6437  
131                     0.314266        -48.1309  
131.2                   0.313372        -48.6155  
131.4                    0.31246        -49.0975  
131.6                   0.311528        -49.5771  
131.8                   0.310579        -50.0543  
132                     0.309612        -50.5293  
132.2                   0.308627        -51.0022  
132.4                   0.307626         -51.473  
132.6                   0.306607        -51.9419  
132.8                   0.305572        -52.4089  
133                      0.30452        -52.8743  
133.2                   0.303452         -53.338  
133.4                   0.302367        -53.8003  
133.6                   0.301267        -54.2612  
133.8                   0.300151        -54.7208  
134                     0.299019        -55.1793  
134.2                   0.297871        -55.6367  
134.4                   0.296707        -56.0933  
134.6                   0.295527        -56.5491  
134.8                   0.294331        -57.0042  
135                      0.29312        -57.4587  
135.2                   0.291892        -57.9128  
135.4                   0.290648        -58.3665  
135.6                   0.289387          -58.82  
135.8                    0.28811        -59.2733  
136                     0.286817        -59.7267  
136.2                   0.285506        -60.1801  
136.4                   0.284179        -60.6337  
136.6                   0.282834        -61.0876  
136.8                   0.281471        -61.5418  
137                      0.28009        -61.9965  
137.2                   0.278691        -62.4518  
137.4                   0.277274        -62.9077  
137.6                   0.275837        -63.3642  
137.8                   0.274382        -63.8216  
138                     0.272907        -64.2798  
138.2                   0.271413        -64.7389  
138.4                   0.269898         -65.199  
138.6                   0.268363        -65.6601  
138.8                   0.266807        -66.1223  
139                      0.26523        -66.5856  
139.2                   0.263632        -67.0501  
139.4                   0.262012        -67.5158  
139.6                    0.26037        -67.9827  
139.8                   0.258706        -68.4509  
140                      0.25702        -68.9204  
140.2                   0.255311        -69.3912  
140.4                   0.253578        -69.8634  
140.6                   0.251823        -70.3369  
140.8                   0.250044        -70.8118  
141                     0.248242         -71.288  
141.2                   0.246416        -71.7655  
141.4                   0.244566        -72.2445  
141.6                   0.242692        -72.7248  
141.8                   0.240793        -73.2064  
142                     0.238871        -73.6893  
142.2                   0.236925        -74.1736  
142.4                   0.234954        -74.6591  
142.6                   0.232959         -75.146  
142.8                    0.23094        -75.6341  
143                     0.228897        -76.1234  
143.2                    0.22683         -76.614  
143.4                   0.224738        -77.1057  
143.6                   0.222623        -77.5987  
143.8                   0.220485        -78.0927  
144                     0.218323        -78.5879  
144.2                   0.216137        -79.0843  
144.4                   0.213929        -79.5817  
144.6                   0.211698        -80.0801  
144.8                   0.209445        -80.5796  
145                     0.207169        -81.0802  
145.2                   0.204872        -81.5818  
145.4                   0.202553        -82.0843  
145.6                   0.200213         -82.588  
145.8                   0.197853        -83.0926  
146                     0.195472        -83.5982  
146.2                   0.193072        -84.1049  
146.4                   0.190652        -84.6127  
146.6                   0.188213        -85.1215  
146.8                   0.185756        -85.6315  
147                      0.18328        -86.1427  
147.2                   0.180787        -86.6551  
147.4                   0.178278        -87.1687  
147.6                   0.175751        -87.6837  
147.8                   0.173209        -88.2002  
148                     0.170651        -88.7183  
148.2                   0.168078         -89.238  
148.4                   0.165491        -89.7595  
148.6                    0.16289         -90.283  
148.8                   0.160275        -90.8085  
149                     0.157648        -91.3365  
149.2                   0.155008        -91.8668  
149.4                   0.152356           -92.4  
149.6                   0.149692        -92.9361  
149.8                   0.147018        -93.4755  
150                     0.144333        -94.0184  
150.2                   0.141638        -94.5653  
150.4                   0.138933        -95.1165  
150.6                   0.136219        -95.6723  
150.8                   0.133497        -96.2334  
151                     0.130766           -96.8  
151.2                   0.128027        -97.3729  
151.4                    0.12528        -97.9525  
151.6                   0.122527        -98.5396  
151.8                   0.119766        -99.1349  
152                     0.116999         -99.739  
152.2                   0.114226        -100.353  
152.4                   0.111447        -100.978  
152.6                   0.108663        -101.615  
152.8                   0.105873        -102.265  
153                     0.103079        -102.929  
153.2                    0.10028        -103.609  
153.4                  0.0974764        -104.306  
153.6                  0.0946693        -105.023  
153.8                  0.0918587        -105.761  
154                    0.0890449        -106.523  
154.2                  0.0862284        -107.311  
154.4                  0.0834096        -108.128  
154.6                  0.0805891        -108.978  
154.8                  0.0777674        -109.864  
155                    0.0749451         -110.79  
155.2                  0.0721232        -111.762  
155.4                  0.0693024        -112.786  
155.6                  0.0664839        -113.869  
155.8                  0.0636689        -115.017  
156                    0.0608591        -116.242  
156.2                  0.0580563        -117.553  
156.4                  0.0552628        -118.964  
156.6                  0.0524815        -120.491  
156.8                  0.0497159        -122.153  
157                    0.0469704        -123.974  
157.2                  0.0442504         -125.98  
157.4                   0.041563        -128.208  
157.6                  0.0389171          -130.7  
157.8                  0.0363241        -133.508  
158                    0.0337988        -136.698  
158.2                  0.0313604        -140.347  
158.4                  0.0290342         -144.55  
158.6                  0.0268528        -149.416  
158.8                  0.0248585        -155.058  
159                    0.0231039        -161.583  
159.2                  0.0216523         -169.05  
159.4                  0.0205729        -177.424  
159.6                  0.0199315         173.472  
159.8                  0.0197762         163.979  
160                    0.0201234          154.54  
160.2                  0.0209532         145.581  
160.4                  0.0222164         137.405  
160.6                  0.0238487         130.153  
160.8                   0.025784         123.832  
161                    0.0279632         118.367  
161.2                   0.030337         113.647  
161.4                  0.0328664         109.559  
161.6                  0.0355207         105.997  
161.8                  0.0382765         102.872  
162                    0.0411154         100.107  
162.2                  0.0440234         97.6428  
162.4                  0.0469892          95.428  
162.6                  0.0500041         93.4224  
162.8                   0.053061         91.5933  
163                    0.0561542         89.9137  
163.2                  0.0592789         88.3619  
163.4                  0.0624313         86.9195  
163.6                  0.0656079         85.5718  
163.8                  0.0688059         84.3062  
164                    0.0720229         83.1122  
164.2                  0.0752567          81.981  
164.4                  0.0785054         80.9052  
164.6                  0.0817672         79.8783  
164.8                  0.0850405          78.895  
165                    0.0883239         77.9506  
165.2                  0.0916161          77.041  
165.4                  0.0949158         76.1627  
165.6                  0.0982218         75.3128  
165.8                   0.101533         74.4884  