! TOUCHSTONE file generated by CST MICROWAVE STUDIO
! Date and time: Thu Dec 15 14:06:23 2016
! Project name: PAPER-FEED-NEWREF-1ports-100ohm-LIGHT-cable4-18-2.cst
! Header version: 2015
! Port assignment regex: !\s*Touchstone port\s*([0-9]+)\s*=\s*CST MWS port\s*([0-9]+)\s*\(\"(.*)\"\)(\s*mode\s*([0-9]+))?.*
! Touchstone port assignment:
! Touchstone port 1 = CST MWS port 1 ("")
# MHZ S MA R 100
50                      0.989968        -48.0233  
50.2                    0.987592        -48.3227  
50.4                    0.985144        -48.6139  
50.6                    0.982634        -48.8965  
50.8                    0.980075        -49.1704  
51                      0.977478        -49.4353  
51.2                    0.974856        -49.6913  
51.4                    0.972222        -49.9381  
51.6                    0.969586        -50.1758  
51.8                     0.96696        -50.4045  
52                      0.964358        -50.6241  
52.2                    0.961789        -50.8349  
52.4                    0.959266        -51.0369  
52.6                    0.956798        -51.2306  
52.8                    0.954397        -51.4161  
53                      0.952072        -51.5938  
53.2                    0.949833         -51.764  
53.4                    0.947687        -51.9272  
53.6                    0.945645        -52.0838  
53.8                    0.943712        -52.2343  
54                      0.941896        -52.3794  
54.2                    0.940203        -52.5194  
54.4                    0.938638        -52.6552  
54.6                    0.937205        -52.7872  
54.8                    0.935909         -52.916  
55                      0.934751        -53.0425  
55.2                    0.933735        -53.1672  
55.4                    0.932861        -53.2908  
55.6                     0.93213         -53.414  
55.8                    0.931541        -53.5374  
56                      0.931093        -53.6617  
56.2                    0.930785        -53.7877  
56.4                    0.930612        -53.9158  
56.6                    0.930573        -54.0467  
56.8                    0.930663        -54.1811  
57                      0.930877        -54.3194  
57.2                    0.931211        -54.4622  
57.4                    0.931657          -54.61  
57.6                     0.93221        -54.7633  
57.8                    0.932864        -54.9224  
58                       0.93361        -55.0878  
58.2                    0.934442        -55.2598  
58.4                    0.935352        -55.4387  
58.6                    0.936332        -55.6247  
58.8                    0.937373        -55.8182  
59                      0.938468        -56.0191  
59.2                    0.939608        -56.2278  
59.4                    0.940786        -56.4441  
59.6                    0.941992        -56.6684  
59.8                    0.943218        -56.9004  
60                      0.944457        -57.1402  
60.2                      0.9457        -57.3877  
60.4                     0.94694         -57.643  
60.6                     0.94817        -57.9057  
60.8                    0.949382        -58.1758  
61                      0.950569         -58.453  
61.2                    0.951725        -58.7372  
61.4                    0.952844        -59.0282  
61.6                     0.95392        -59.3257  
61.8                    0.954948        -59.6294  
62                      0.955922        -59.9391  
62.2                    0.956839        -60.2544  
62.4                    0.957693         -60.575  
62.6                    0.958482        -60.9007  
62.8                    0.959202         -61.231  
63                      0.959851        -61.5657  
63.2                    0.960427        -61.9044  
63.4                    0.960926        -62.2468  
63.6                     0.96135        -62.5926  
63.8                    0.961695        -62.9413  
64                      0.961962        -63.2927  
64.2                    0.962152        -63.6465  
64.4                    0.962263        -64.0022  
64.6                    0.962298        -64.3597  
64.8                    0.962258        -64.7185  
65                      0.962143        -65.0785  
65.2                    0.961957        -65.4392  
65.4                    0.961701        -65.8005  
65.6                    0.961378        -66.1621  
65.8                    0.960992        -66.5237  
66                      0.960544        -66.8851  
66.2                    0.960039        -67.2462  
66.4                    0.959481        -67.6066  
66.6                    0.958873        -67.9663  
66.8                     0.95822        -68.3251  
67                      0.957526        -68.6828  
67.2                    0.956795        -69.0394  
67.4                    0.956031        -69.3947  
67.6                     0.95524        -69.7488  
67.8                    0.954427        -70.1015  
68                      0.953595        -70.4528  
68.2                    0.952749        -70.8027  
68.4                    0.951894        -71.1512  
68.6                    0.951035        -71.4984  
68.8                    0.950176        -71.8444  
69                      0.949322        -72.1891  
69.2                    0.948476        -72.5328  
69.4                    0.947644        -72.8755  
69.6                    0.946828        -73.2174  
69.8                    0.946033        -73.5586  
70                      0.945262        -73.8994  
70.2                    0.944518        -74.2398  
70.4                    0.943805        -74.5802  
70.6                    0.943125        -74.9207  
70.8                     0.94248        -75.2615  
71                      0.941874         -75.603  
71.2                    0.941308        -75.9454  
71.4                    0.940783        -76.2888  
71.6                    0.940301        -76.6337  
71.8                    0.939862        -76.9803  
72                      0.939468        -77.3288  
72.2                    0.939119        -77.6795  
72.4                    0.938814        -78.0328  
72.6                    0.938554        -78.3888  
72.8                    0.938339        -78.7479  
73                      0.938166        -79.1104  
73.2                    0.938035        -79.4764  
73.4                    0.937944        -79.8464  
73.6                    0.937893        -80.2204  
73.8                    0.937878        -80.5989  
74                      0.937898        -80.9819  
74.2                     0.93795        -81.3698  
74.4                    0.938031        -81.7627  
74.6                     0.93814        -82.1609  
74.8                    0.938272        -82.5644  
75                      0.938426        -82.9736  
75.2                    0.938596        -83.3886  
75.4                    0.938781        -83.8094  
75.6                    0.938977        -84.2362  
75.8                     0.93918        -84.6693  
76                      0.939387        -85.1085  
76.2                    0.939595        -85.5541  
76.4                    0.939798         -86.006  
76.6                    0.939995        -86.4645  
76.8                    0.940182        -86.9294  
77                      0.940354        -87.4008  
77.2                    0.940509        -87.8788  
77.4                    0.940644        -88.3633  
77.6                    0.940754        -88.8544  
77.8                    0.940837        -89.3519  
78                       0.94089         -89.856  
78.2                    0.940909        -90.3664  
78.4                    0.940893        -90.8833  
78.6                    0.940838        -91.4065  
78.8                    0.940742         -91.936  
79                      0.940603        -92.4716  
79.2                    0.940418        -93.0134  
79.4                    0.940186        -93.5612  
79.6                    0.939905        -94.1149  
79.8                    0.939573        -94.6745  
80                      0.939189        -95.2399  
80.2                    0.938752        -95.8109  
80.4                     0.93826        -96.3875  
80.6                    0.937713        -96.9695  
80.8                     0.93711         -97.557  
81                      0.936451        -98.1497  
81.2                    0.935736        -98.7477  
81.4                    0.934964        -99.3507  
81.6                    0.934136        -99.9588  
81.8                    0.933251        -100.572  
82                      0.932311         -101.19  
82.2                    0.931316        -101.813  
82.4                    0.930266         -102.44  
82.6                    0.929163        -103.072  
82.8                    0.928006        -103.709  
83                      0.926799         -104.35  
83.2                    0.925541        -104.996  
83.4                    0.924234        -105.647  
83.6                    0.922879        -106.302  
83.8                    0.921478        -106.962  
84                      0.920033        -107.626  
84.2                    0.918544        -108.295  
84.4                    0.917014        -108.968  
84.6                    0.915444        -109.646  
84.8                    0.913836        -110.329  
85                      0.912192        -111.016  
85.2                    0.910512        -111.708  
85.4                      0.9088        -112.405  
85.6                    0.907056        -113.107  
85.8                    0.905282        -113.814  
86                       0.90348        -114.527  
86.2                     0.90165        -115.244  
86.4                    0.899796        -115.967  
86.6                    0.897917        -116.696  
86.8                    0.896015         -117.43  
87                      0.894092         -118.17  
87.2                    0.892148        -118.916  
87.4                    0.890185        -119.668  
87.6                    0.888203        -120.427  
87.8                    0.886203        -121.192  
88                      0.884186        -121.963  
88.2                    0.882153        -122.742  
88.4                    0.880103        -123.528  
88.6                    0.878037        -124.321  
88.8                    0.875956        -125.122  
89                      0.873859        -125.931  
89.2                    0.871746        -126.747  
89.4                    0.869618        -127.572  
89.6                    0.867473        -128.405  
89.8                    0.865312        -129.246  
90                      0.863134        -130.097  
90.2                    0.860939        -130.956  
90.4                    0.858725        -131.825  
90.6                    0.856492        -132.703  
90.8                     0.85424        -133.591  
91                      0.851966        -134.489  
91.2                    0.849671        -135.397  
91.4                    0.847352        -136.315  
91.6                     0.84501        -137.243  
91.8                    0.842642        -138.183  
92                      0.840248        -139.133  
92.2                    0.837826        -140.094  
92.4                    0.835376        -141.067  
92.6                    0.832895        -142.051  
92.8                    0.830382        -143.046  
93                      0.827837        -144.054  
93.2                    0.825257        -145.073  
93.4                    0.822643        -146.104  
93.6                    0.819992        -147.147  
93.8                    0.817304        -148.203  
94                      0.814577        -149.271  
94.2                     0.81181        -150.352  
94.4                    0.809003        -151.445  
94.6                    0.806155        -152.551  
94.8                    0.803264         -153.67  
95                      0.800331        -154.801  
95.2                    0.797354        -155.946  
95.4                    0.794333        -157.104  
95.6                    0.791268        -158.275  
95.8                    0.788159        -159.459  
96                      0.785005        -160.656  
96.2                    0.781807        -161.867  
96.4                    0.778565        -163.091  
96.6                    0.775278        -164.328  
96.8                    0.771948        -165.579  
97                      0.768574        -166.842  
97.2                    0.765159         -168.12  
97.4                    0.761702         -169.41  
97.6                    0.758204        -170.714  
97.8                    0.754668        -172.031  
98                      0.751093        -173.362  
98.2                    0.747481        -174.705  
98.4                    0.743835        -176.062  
98.6                    0.740155        -177.432  
98.8                    0.736444        -178.815  
99                      0.732704         179.789  
99.2                    0.728936         178.381  
99.4                    0.725143         176.959  
99.6                    0.721327         175.525  
99.8                     0.71749         174.078  
100                     0.713636         172.619  
100.2                   0.709767         171.148  
100.4                   0.705886         169.665  
100.6                   0.701994          168.17  
100.8                   0.698097         166.663  
101                     0.694195         165.144  
101.2                   0.690293         163.614  
101.4                   0.686394         162.073  
101.6                     0.6825         160.521  
101.8                   0.678615         158.959  
102                     0.674742         157.386  
102.2                   0.670885         155.802  
102.4                   0.667046         154.209  
102.6                   0.663229         152.607  
102.8                   0.659436         150.995  
103                     0.655672         149.374  
103.2                   0.651939         147.745  
103.4                   0.648241         146.107  
103.6                    0.64458         144.462  
103.8                    0.64096         142.809  
104                     0.637383         141.149  
104.2                   0.633852         139.483  
104.4                   0.630371          137.81  
104.6                   0.626941         136.132  
104.8                   0.623566         134.448  
105                     0.620247          132.76  
105.2                   0.616988         131.067  
105.4                    0.61379         129.371  
105.6                   0.610656         127.671  
105.8                   0.607587         125.969  
106                     0.604585         124.265  
106.2                   0.601653         122.558  
106.4                   0.598791         120.851  
106.6                      0.596         119.143  
106.8                   0.593283         117.436  
107                     0.590641         115.729  
107.2                   0.588073         114.023  
107.4                   0.585581         112.319  
107.6                   0.583166         110.617  
107.8                   0.580828         108.918  
108                     0.578567         107.223  
108.2                   0.576384         105.532  
108.4                   0.574279         103.845  
108.6                   0.572251         102.164  
108.8                   0.570301         100.488  
109                     0.568427         98.8188  
109.2                    0.56663         97.1563  
109.4                    0.56491         95.5012  
109.6                   0.563264          93.854  
109.8                   0.561694         92.2151  
110                     0.560197         90.5851  
110.2                   0.558773         88.9643  
110.4                    0.55742         87.3533  
110.6                   0.556139         85.7524  
110.8                   0.554927         84.1621  
111                     0.553784         82.5827  
111.2                   0.552707         81.0146  
111.4                   0.551697         79.4582  
111.6                   0.550751         77.9137  
111.8                   0.549868         76.3815  
112                     0.549047         74.8618  
112.2                   0.548287         73.3549  
112.4                   0.547585          71.861  
112.6                   0.546941         70.3803  
112.8                   0.546353         68.9129  
113                      0.54582         67.4591  
113.2                   0.545341          66.019  
113.4                   0.544913         64.5927  
113.6                   0.544535         63.1803  
113.8                   0.544207         61.7818  
114                     0.543926         60.3973  
114.2                   0.543692         59.0268  
114.4                   0.543503         57.6703  
114.6                   0.543357         56.3279  
114.8                   0.543254         54.9994  
115                     0.543191         53.6848  
115.2                   0.543169         52.3841  
115.4                   0.543184         51.0972  
115.6                   0.543237         49.8238  
115.8                   0.543325         48.5641  
116                     0.543448         47.3177  
116.2                   0.543604         46.0845  
116.4                   0.543792         44.8645  
116.6                    0.54401         43.6574  
116.8                   0.544258         42.4629  
117                     0.544533         41.2811  
117.2                   0.544836         40.1115  
117.4                   0.545163         38.9541  
117.6                   0.545514         37.8086  
117.8                   0.545888         36.6747  
118                     0.546283         35.5523  
118.2                   0.546698         34.4411  
118.4                   0.547131         33.3409  
118.6                   0.547581         32.2514  
118.8                   0.548046         31.1723  
119                     0.548525         30.1036  
119.2                   0.549016         29.0448  
119.4                   0.549518         27.9957  
119.6                   0.550029         26.9562  
119.8                   0.550547          25.926  
120                     0.551071         24.9048  
120.2                   0.551599         23.8924  
120.4                   0.552129         22.8886  
120.6                   0.552659         21.8931  
120.8                   0.553189         20.9058  
121                     0.553715         19.9265  
121.2                   0.554237         18.9548  
121.4                   0.554752         17.9907  
121.6                   0.555259          17.034  
121.8                   0.555756         16.0844  
122                      0.55624         15.1418  
122.2                   0.556711         14.2061  
122.4                   0.557166         13.2771  
122.6                   0.557604         12.3546  
122.8                   0.558022         11.4385  
123                      0.55842         10.5287  
123.2                   0.558794         9.62509  
123.4                   0.559145         8.72755  
123.6                   0.559469         7.83597  
123.8                   0.559765         6.95028  
124                     0.560033         6.07042  
124.2                   0.560269         5.19629  
124.4                   0.560474         4.32787  
124.6                   0.560644         3.46508  
124.8                    0.56078         2.60792  
125                     0.560879          1.7563  
125.2                   0.560941         0.91029  
125.4                   0.560964       0.0697945  
125.6                   0.560948       -0.765155  
125.8                   0.560891        -1.59461  
126                     0.560793        -2.41844  
126.2                   0.560653        -3.23678  
126.4                    0.56047        -4.04949  
126.6                   0.560243         -4.8566  
126.8                   0.559973        -5.65808  
127                     0.559658        -6.45386  
127.2                     0.5593        -7.24392  
127.4                   0.558896        -8.02819  
127.6                   0.558448        -8.80667  
127.8                   0.557955         -9.5793  
128                     0.557418         -10.346  
128.2                   0.556838        -11.1067  
128.4                   0.556213        -11.8614  
128.6                   0.555545          -12.61  
128.8                   0.554835        -13.3525  
129                     0.554083        -14.0887  
129.2                   0.553291        -14.8187  
129.4                   0.552458        -15.5425  
129.6                   0.551586        -16.2599  
129.8                   0.550677        -16.9709  
130                     0.549731        -17.6755  
130.2                   0.548749        -18.3737  
130.4                   0.547734        -19.0654  
130.6                   0.546686        -19.7505  
130.8                   0.545607        -20.4292  
131                     0.544499        -21.1014  
131.2                   0.543363         -21.767  
131.4                   0.542202        -22.4261  
131.6                   0.541016        -23.0788  
131.8                   0.539807         -23.725  
132                     0.538578        -24.3647  
132.2                    0.53733        -24.9981  
132.4                   0.536065        -25.6252  
132.6                   0.534785         -26.246  
132.8                   0.533491        -26.8607  
133                     0.532187        -27.4693  
133.2                   0.530872         -28.072  
133.4                    0.52955        -28.6688  
133.6                   0.528222        -29.2599  
133.8                   0.526889        -29.8454  
134                     0.525554        -30.4255  
134.2                   0.524217        -31.0004  
134.4                   0.522881        -31.5702  
134.6                   0.521547        -32.1351  
134.8                   0.520216        -32.6954  
135                      0.51889        -33.2511  
135.2                   0.517569        -33.8027  
135.4                   0.516256        -34.3502  
135.6                   0.514949         -34.894  
135.8                   0.513652        -35.4342  
136                     0.512364        -35.9712  
136.2                   0.511085        -36.5051  
136.4                   0.509817        -37.0364  
136.6                    0.50856        -37.5651  
136.8                   0.507314        -38.0917  
137                     0.506078        -38.6164  
137.2                   0.504854        -39.1394  
137.4                    0.50364        -39.6612  
137.6                   0.502437        -40.1818  
137.8                   0.501243        -40.7018  
138                     0.500059        -41.2212  
138.2                   0.498883        -41.7405  
138.4                   0.497714        -42.2598  
138.6                   0.496552        -42.7794  
138.8                   0.495396        -43.2997  
139                     0.494244        -43.8208  
139.2                   0.493095         -44.343  
139.4                   0.491947        -44.8665  
139.6                   0.490799        -45.3916  
139.8                   0.489649        -45.9185  
140                     0.488496        -46.4473  
140.2                   0.487337        -46.9783  
140.4                   0.486172        -47.5117  
140.6                   0.484997        -48.0476  
140.8                   0.483812        -48.5862  
141                     0.482613        -49.1276  
141.2                     0.4814        -49.6719  
141.4                   0.480169        -50.2192  
141.6                   0.478919        -50.7697  
141.8                   0.477649        -51.3234  
142                     0.476354        -51.8804  
142.2                   0.475035        -52.4407  
142.4                   0.473689        -53.0043  
142.6                   0.472313        -53.5713  
142.8                   0.470906        -54.1417  
143                     0.469467        -54.7155  
143.2                   0.467992        -55.2926  
143.4                   0.466481         -55.873  
143.6                   0.464932        -56.4567  
143.8                   0.463343        -57.0435  
144                     0.461713        -57.6335  
144.2                    0.46004        -58.2265  
144.4                   0.458323        -58.8224  
144.6                   0.456561        -59.4211  
144.8                   0.454752        -60.0225  
145                     0.452896        -60.6264  
145.2                   0.450993        -61.2328  
145.4                    0.44904        -61.8413  
145.6                   0.447038        -62.4521  
145.8                   0.444986        -63.0647  
146                     0.442883        -63.6791  
146.2                    0.44073        -64.2952  
146.4                   0.438527        -64.9126  
146.6                   0.436273        -65.5312  
146.8                   0.433968        -66.1509  
147                     0.431614        -66.7714  
147.2                   0.429209        -67.3926  
147.4                   0.426756        -68.0142  
147.6                   0.424254        -68.6361  
147.8                   0.421705        -69.2581  
148                     0.419108        -69.8799  
148.2                   0.416467        -70.5015  
148.4                    0.41378        -71.1225  
148.6                   0.411051        -71.7429  
148.8                   0.408279        -72.3623  
149                     0.405467        -72.9808  
149.2                   0.402617        -73.5981  
149.4                   0.399729         -74.214  
149.6                   0.396806        -74.8284  
149.8                   0.393849        -75.4411  
150                     0.390861        -76.0521  
150.2                   0.387843        -76.6613  
150.4                   0.384798        -77.2684  
150.6                   0.381726        -77.8735  
150.8                   0.378631        -78.4764  
151                     0.375515        -79.0772  
151.2                    0.37238        -79.6757  
151.4                   0.369227        -80.2719  
151.6                    0.36606        -80.8659  
151.8                    0.36288        -81.4576  
152                     0.359689        -82.0471  
152.2                    0.35649        -82.6345  
152.4                   0.353284        -83.2198  
152.6                   0.350075        -83.8032  
152.8                   0.346863        -84.3847  
153                      0.34365        -84.9646  
153.2                    0.34044        -85.5429  
153.4                   0.337233          -86.12  
153.6                   0.334031        -86.6961  
153.8                   0.330836        -87.2714  
154                     0.327649        -87.8461  
154.2                   0.324472        -88.4207  
154.4                   0.321307        -88.9955  
154.6                   0.318153        -89.5708  
154.8                   0.315014        -90.1471  
155                     0.311889        -90.7247  
155.2                   0.308779        -91.3041  
155.4                   0.305686        -91.8858  
155.6                   0.302609        -92.4704  
155.8                   0.299549        -93.0583  
156                     0.296507          -93.65  
156.2                   0.293483        -94.2462  
156.4                   0.290476        -94.8475  
156.6                   0.287487        -95.4545  
156.8                   0.284515        -96.0678  
157                      0.28156        -96.6881  
157.2                   0.278622        -97.3161  
157.4                     0.2757        -97.9524  
157.6                   0.272793        -98.5978  
157.8                   0.269901        -99.2529  
158                     0.267022        -99.9186  
158.2                   0.264156        -100.596  
158.4                   0.261301        -101.285  
158.6                   0.258457        -101.987  
158.8                   0.255622        -102.702  
159                     0.252795        -103.432  
159.2                   0.249975        -104.177  
159.4                   0.247161        -104.938  
159.6                    0.24435        -105.716  
159.8                   0.241543        -106.511  
160                     0.238737        -107.325  
160.2                   0.235931        -108.159  
160.4                   0.233125        -109.012  
160.6                   0.230317        -109.887  
160.8                   0.227505        -110.783  
161                      0.22469        -111.703  
161.2                    0.22187        -112.646  
161.4                   0.219044        -113.614  
161.6                   0.216212        -114.607  
161.8                   0.213373        -115.627  
162                     0.210527        -116.675  
162.2                   0.207674        -117.752  
162.4                   0.204813        -118.858  
162.6                   0.201945        -119.995  
162.8                    0.19907        -121.164  
163                     0.196188        -122.366  
163.2                   0.193302        -123.602  
163.4                   0.190411        -124.874  
163.6                   0.187517        -126.183  
163.8                   0.184621         -127.53  
164                     0.181726        -128.917  
164.2                   0.178833        -130.345  
164.4                   0.175945        -131.815  
164.6                   0.173065         -133.33  
164.8                   0.170196         -134.89  
165                      0.16734        -136.498  
165.2                   0.164503        -138.154  
165.4                   0.161688        -139.862  
165.6                   0.158899        -141.622  
165.8                   0.156141        -143.436  