! TOUCHSTONE file generated by CST MICROWAVE STUDIO
! Date and time: Thu Dec 15 14:07:54 2016
! Project name: PAPER-FEED-NEWREF-1ports-100ohm-LIGHT-cable4-20-2.cst
! Header version: 2015
! Port assignment regex: !\s*Touchstone port\s*([0-9]+)\s*=\s*CST MWS port\s*([0-9]+)\s*\(\"(.*)\"\)(\s*mode\s*([0-9]+))?.*
! Touchstone port assignment:
! Touchstone port 1 = CST MWS port 1 ("")
# MHZ S MA R 100
50                             1        -46.1872  
50.2                    0.999931        -46.4487  
50.4                    0.999835        -46.7109  
50.6                    0.999715        -46.9736  
50.8                     0.99957        -47.2368  
51                      0.999401        -47.5005  
51.2                    0.999209        -47.7644  
51.4                    0.998994        -48.0287  
51.6                    0.998758        -48.2931  
51.8                    0.998502        -48.5577  
52                      0.998227        -48.8223  
52.2                    0.997934        -49.0869  
52.4                    0.997624        -49.3515  
52.6                      0.9973         -49.616  
52.8                    0.996961        -49.8804  
53                      0.996611        -50.1446  
53.2                     0.99625        -50.4087  
53.4                     0.99588        -50.6725  
53.6                    0.995503        -50.9361  
53.8                     0.99512        -51.1996  
54                      0.994733        -51.4628  
54.2                    0.994343        -51.7258  
54.4                    0.993952        -51.9886  
54.6                    0.993562        -52.2512  
54.8                    0.993175        -52.5137  
55                      0.992791        -52.7761  
55.2                    0.992413        -53.0384  
55.4                    0.992042        -53.3007  
55.6                    0.991679        -53.5631  
55.8                    0.991326        -53.8256  
56                      0.990984        -54.0883  
56.2                    0.990654        -54.3512  
56.4                    0.990337        -54.6144  
56.6                    0.990035        -54.8781  
56.8                    0.989749        -55.1422  
57                      0.989478         -55.407  
57.2                    0.989225        -55.6724  
57.4                    0.988989        -55.9387  
57.6                    0.988772        -56.2058  
57.8                    0.988573        -56.4739  
58                      0.988394        -56.7431  
58.2                    0.988233        -57.0136  
58.4                    0.988092        -57.2854  
58.6                    0.987971        -57.5585  
58.8                    0.987868        -57.8333  
59                      0.987785        -58.1097  
59.2                     0.98772        -58.3878  
59.4                    0.987674        -58.6678  
59.6                    0.987645        -58.9498  
59.8                    0.987633        -59.2339  
60                      0.987637        -59.5201  
60.2                    0.987657        -59.8086  
60.4                    0.987691        -60.0995  
60.6                    0.987738        -60.3929  
60.8                    0.987797        -60.6888  
61                      0.987867        -60.9873  
61.2                    0.987947        -61.2886  
61.4                    0.988036        -61.5926  
61.6                    0.988131        -61.8995  
61.8                    0.988232        -62.2092  
62                      0.988336         -62.522  
62.2                    0.988443        -62.8377  
62.4                    0.988551        -63.1566  
62.6                    0.988659        -63.4785  
62.8                    0.988764        -63.8036  
63                      0.988865        -64.1319  
63.2                     0.98896        -64.4633  
63.4                    0.989049         -64.798  
63.6                    0.989129        -65.1359  
63.8                    0.989198         -65.477  
64                      0.989256        -65.8214  
64.2                    0.989301         -66.169  
64.4                     0.98933        -66.5198  
64.6                    0.989344        -66.8738  
64.8                     0.98934        -67.2311  
65                      0.989317        -67.5915  
65.2                    0.989274        -67.9551  
65.4                     0.98921        -68.3218  
65.6                    0.989123        -68.6915  
65.8                    0.989013        -69.0643  
66                      0.988879        -69.4402  
66.2                    0.988719         -69.819  
66.4                    0.988534        -70.2008  
66.6                    0.988322        -70.5855  
66.8                    0.988082        -70.9731  
67                      0.987815        -71.3634  
67.2                     0.98752        -71.7566  
67.4                    0.987196        -72.1524  
67.6                    0.986843         -72.551  
67.8                    0.986461        -72.9521  
68                      0.986051        -73.3559  
68.2                    0.985611        -73.7623  
68.4                    0.985143        -74.1711  
68.6                    0.984646        -74.5825  
68.8                     0.98412        -74.9963  
69                      0.983567        -75.4126  
69.2                    0.982986        -75.8312  
69.4                    0.982378        -76.2522  
69.6                    0.981744        -76.6756  
69.8                    0.981084        -77.1014  
70                      0.980399        -77.5294  
70.2                    0.979689        -77.9599  
70.4                    0.978956        -78.3926  
70.6                      0.9782        -78.8277  
70.8                    0.977422        -79.2652  
71                      0.976623         -79.705  
71.2                    0.975804        -80.1472  
71.4                    0.974966        -80.5919  
71.6                    0.974109         -81.039  
71.8                    0.973236        -81.4887  
72                      0.972345        -81.9409  
72.2                     0.97144        -82.3957  
72.4                     0.97052        -82.8532  
72.6                    0.969586        -83.3135  
72.8                    0.968639        -83.7765  
73                       0.96768        -84.2425  
73.2                     0.96671        -84.7115  
73.4                    0.965729        -85.1836  
73.6                    0.964738        -85.6588  
73.8                    0.963737        -86.1374  
74                      0.962727        -86.6194  
74.2                    0.961709        -87.1049  
74.4                    0.960682         -87.594  
74.6                    0.959647         -88.087  
74.8                    0.958604        -88.5838  
75                      0.957553        -89.0847  
75.2                    0.956493        -89.5898  
75.4                    0.955426        -90.0992  
75.6                    0.954349        -90.6131  
75.8                    0.953264        -91.1317  
76                      0.952169         -91.655  
76.2                    0.951063        -92.1833  
76.4                    0.949947        -92.7167  
76.6                    0.948818        -93.2554  
76.8                    0.947677        -93.7995  
77                      0.946522        -94.3491  
77.2                    0.945351        -94.9045  
77.4                    0.944163        -95.4659  
77.6                    0.942957        -96.0333  
77.8                    0.941732        -96.6069  
78                      0.940485        -97.1869  
78.2                    0.939214        -97.7735  
78.4                    0.937919        -98.3667  
78.6                    0.936596        -98.9669  
78.8                    0.935243         -99.574  
79                       0.93386        -100.188  
79.2                    0.932442         -100.81  
79.4                    0.930989        -101.439  
79.6                    0.929496        -102.075  
79.8                    0.927963         -102.72  
80                      0.926386        -103.372  
80.2                    0.924763        -104.032  
80.4                    0.923091          -104.7  
80.6                    0.921367        -105.376  
80.8                    0.919589        -106.061  
81                      0.917755        -106.754  
81.2                     0.91586        -107.455  
81.4                    0.913903        -108.166  
81.6                    0.911881        -108.884  
81.8                     0.90979        -109.612  
82                      0.907629        -110.349  
82.2                    0.905395        -111.094  
82.4                    0.903084        -111.849  
82.6                    0.900695        -112.612  
82.8                    0.898224        -113.385  
83                      0.895669        -114.167  
83.2                    0.893028        -114.958  
83.4                    0.890298        -115.758  
83.6                    0.887476        -116.568  
83.8                    0.884561        -117.387  
84                      0.881551        -118.216  
84.2                    0.878442        -119.054  
84.4                    0.875234        -119.902  
84.6                    0.871923        -120.759  
84.8                     0.86851        -121.626  
85                      0.864991        -122.503  
85.2                    0.861365        -123.389  
85.4                     0.85763        -124.284  
85.6                    0.853787         -125.19  
85.8                    0.849832        -126.105  
86                      0.845765         -127.03  
86.2                    0.841586        -127.965  
86.4                    0.837292        -128.909  
86.6                    0.832885        -129.863  
86.8                    0.828362        -130.827  
87                      0.823725        -131.801  
87.2                    0.818972        -132.785  
87.4                    0.814103        -133.778  
87.6                     0.80912        -134.782  
87.8                    0.804021        -135.795  
88                      0.798807        -136.818  
88.2                    0.793479        -137.851  
88.4                    0.788037        -138.895  
88.6                    0.782483        -139.948  
88.8                    0.776817        -141.011  
89                      0.771041        -142.085  
89.2                    0.765156        -143.168  
89.4                    0.759162        -144.262  
89.6                    0.753063        -145.366  
89.8                     0.74686        -146.481  
90                      0.740554        -147.606  
90.2                    0.734149        -148.741  
90.4                    0.727645        -149.887  
90.6                    0.721045        -151.043  
90.8                    0.714353         -152.21  
91                       0.70757        -153.388  
91.2                    0.700699        -154.577  
91.4                    0.693744        -155.777  
91.6                    0.686708        -156.988  
91.8                    0.679593         -158.21  
92                      0.672403        -159.444  
92.2                    0.665142        -160.689  
92.4                    0.657813        -161.945  
92.6                    0.650419        -163.214  
92.8                    0.642966        -164.495  
93                      0.635456        -165.787  
93.2                    0.627894        -167.092  
93.4                    0.620285         -168.41  
93.6                    0.612631        -169.741  
93.8                    0.604938        -171.084  
94                      0.597211        -172.441  
94.2                    0.589453        -173.811  
94.4                    0.581671        -175.195  
94.6                    0.573867        -176.593  
94.8                    0.566048        -178.005  
95                      0.558218        -179.432  
95.2                    0.550383         179.127  
95.4                    0.542547          177.67  
95.6                    0.534715         176.198  
95.8                    0.526894         174.709  
96                      0.519089         173.205  
96.2                    0.511304         171.684  
96.4                    0.503545         170.147  
96.6                    0.495818         168.592  
96.8                    0.488128         167.019  
97                      0.480482         165.428  
97.2                    0.472884         163.819  
97.4                    0.465341         162.192  
97.6                    0.457858         160.545  
97.8                    0.450441         158.878  
98                      0.443096         157.192  
98.2                    0.435828         155.485  
98.4                    0.428643         153.757  
98.6                    0.421548         152.009  
98.8                    0.414547         150.239  
99                      0.407647         148.447  
99.2                    0.400854         146.634  
99.4                    0.394172         144.798  
99.6                    0.387608          142.94  
99.8                    0.381168         141.059  
100                     0.374856         139.156  
100.2                   0.368678          137.23  
100.4                    0.36264         135.281  
100.6                   0.356746          133.31  
100.8                   0.351002         131.316  
101                     0.345411           129.3  
101.2                    0.33998         127.262  
101.4                   0.334711         125.203  
101.6                    0.32961         123.122  
101.8                    0.32468         121.022  
102                     0.319924         118.902  
102.2                   0.315346         116.763  
102.4                   0.310949         114.607  
102.6                   0.306735         112.434  
102.8                   0.302707         110.247  
103                     0.298865         108.045  
103.2                   0.295212         105.831  
103.4                   0.291748         103.607  
103.6                   0.288474         101.374  
103.8                   0.285389          99.134  
104                     0.282493         96.8888  
104.2                   0.279784         94.6406  
104.4                   0.277262         92.3914  
104.6                   0.274924         90.1433  
104.8                   0.272767         87.8984  
105                     0.270789         85.6591  
105.2                   0.268987         83.4273  
105.4                   0.267355         81.2052  
105.6                   0.265891         78.9951  
105.8                    0.26459         76.7988  
106                     0.263446         74.6184  
106.2                   0.262454         72.4558  
106.4                    0.26161         70.3127  
106.6                   0.260907          68.191  
106.8                    0.26034         66.0921  
107                     0.259902         64.0176  
107.2                   0.259588         61.9686  
107.4                   0.259391         59.9466  
107.6                   0.259306         57.9525  
107.8                   0.259326         55.9872  
108                     0.259445         54.0517  
108.2                   0.259656         52.1464  
108.4                   0.259956         50.2721  
108.6                   0.260336         48.4291  
108.8                   0.260792         46.6177  
109                     0.261319         44.8383  
109.2                    0.26191         43.0908  
109.4                   0.262561         41.3753  
109.6                   0.263267         39.6916  
109.8                   0.264023         38.0399  
110                     0.264825         36.4196  
110.2                   0.265668         34.8307  
110.4                   0.266549         33.2727  
110.6                   0.267463         31.7452  
110.8                   0.268406         30.2479  
111                     0.269376         28.7802  
111.2                   0.270369         27.3417  
111.4                   0.271382         25.9317  
111.6                   0.272412         24.5498  
111.8                   0.273456         23.1953  
112                     0.274512         21.8676  
112.2                   0.275578         20.5662  
112.4                   0.276651         19.2904  
112.6                   0.277729         18.0396  
112.8                   0.278811          16.813  
113                     0.279894         15.6102  
113.2                   0.280978         14.4304  
113.4                    0.28206         13.2731  
113.6                   0.283139         12.1375  
113.8                   0.284214         11.0231  
114                     0.285284          9.9292  
114.2                   0.286347         8.85522  
114.4                   0.287402         7.80056  
114.6                   0.288449         6.76461  
114.8                   0.289486         5.74677  
115                     0.290513         4.74645  
115.2                   0.291529         3.76315  
115.4                   0.292533         2.79624  
115.6                   0.293524         1.84518  
115.8                   0.294501        0.909498  
116                     0.295464      -0.0113755  
116.2                   0.296413       -0.917933  
116.4                   0.297346        -1.81069  
116.6                   0.298263        -2.69007  
116.8                   0.299164        -3.55657  
117                     0.300047        -4.41065  
117.2                   0.300913        -5.25273  
117.4                    0.30176        -6.08322  
117.6                   0.302589         -6.9026  
117.8                   0.303398        -7.71116  
118                     0.304187        -8.50933  
118.2                   0.304956        -9.29751  
118.4                   0.305704         -10.076  
118.6                    0.30643        -10.8452  
118.8                   0.307134        -11.6053  
119                     0.307816        -12.3568  
119.2                   0.308475        -13.0999  
119.4                    0.30911        -13.8349  
119.6                   0.309721        -14.5621  
119.8                   0.310308        -15.2815  
120                      0.31087        -15.9938  
120.2                   0.311407        -16.6989  
120.4                   0.311917        -17.3971  
120.6                   0.312401        -18.0886  
120.8                   0.312859        -18.7737  
121                     0.313289        -19.4526  
121.2                   0.313692        -20.1252  
121.4                   0.314067        -20.7919  
121.6                   0.314413        -21.4528  
121.8                   0.314731        -22.1081  
122                      0.31502        -22.7578  
122.2                   0.315279        -23.4022  
122.4                   0.315509        -24.0412  
122.6                   0.315709        -24.6751  
122.8                   0.315879        -25.3039  
123                     0.316019        -25.9278  
123.2                   0.316129        -26.5467  
123.4                   0.316208        -27.1608  
123.6                   0.316256        -27.7701  
123.8                   0.316274        -28.3747  
124                      0.31626        -28.9748  
124.2                   0.316216        -29.5702  
124.4                   0.316142        -30.1611  
124.6                   0.316036        -30.7476  
124.8                     0.3159        -31.3296  
125                     0.315733        -31.9071  
125.2                   0.315536        -32.4803  
125.4                   0.315308        -33.0492  
125.6                   0.315051        -33.6137  
125.8                   0.314764         -34.174  
126                     0.314447          -34.73  
126.2                   0.314101        -35.2817  
126.4                   0.313726        -35.8292  
126.6                   0.313322        -36.3726  
126.8                    0.31289        -36.9118  
127                      0.31243        -37.4468  
127.2                   0.311943        -37.9777  
127.4                   0.311429        -38.5046  
127.6                   0.310888        -39.0274  
127.8                   0.310322         -39.546  
128                     0.309729        -40.0608  
128.2                   0.309112        -40.5715  
128.4                    0.30847        -41.0783  
128.6                   0.307804        -41.5812  
128.8                   0.307114        -42.0802  
129                     0.306402        -42.5754  
129.2                   0.305667        -43.0669  
129.4                    0.30491        -43.5546  
129.6                   0.304132        -44.0386  
129.8                   0.303333         -44.519  
130                     0.302514        -44.9959  
130.2                   0.301676        -45.4694  
130.4                   0.300818        -45.9394  
130.6                   0.299941         -46.406  
130.8                   0.299047        -46.8694  
131                     0.298135        -47.3296  
131.2                   0.297205        -47.7867  
131.4                   0.296259        -48.2409  
131.6                   0.295297        -48.6921  
131.8                   0.294319        -49.1404  
132                     0.293325        -49.5861  
132.2                   0.292316        -50.0292  
132.4                   0.291293        -50.4697  
132.6                   0.290255        -50.9079  
132.8                   0.289203        -51.3437  
133                     0.288137        -51.7775  
133.2                   0.287058        -52.2091  
133.4                   0.285965        -52.6388  
133.6                   0.284859        -53.0667  
133.8                    0.28374        -53.4929  
134                     0.282608        -53.9175  
134.2                   0.281463        -54.3407  
134.4                   0.280306        -54.7626  
134.6                   0.279135        -55.1833  
134.8                   0.277952        -55.6028  
135                     0.276756        -56.0215  
135.2                   0.275547        -56.4393  
135.4                   0.274325        -56.8565  
135.6                    0.27309         -57.273  
135.8                   0.271841        -57.6891  
136                     0.270579        -58.1048  
136.2                   0.269304        -58.5203  
136.4                   0.268015        -58.9357  
136.6                   0.266711         -59.351  
136.8                   0.265393        -59.7665  
137                     0.264061        -60.1821  
137.2                   0.262713         -60.598  
137.4                   0.261351        -61.0143  
137.6                   0.259972        -61.4311  
137.8                   0.258578        -61.8484  
138                     0.257168        -62.2663  
138.2                    0.25574        -62.6849  
138.4                   0.254296        -63.1043  
138.6                   0.252835        -63.5245  
138.8                   0.251356        -63.9457  
139                     0.249859        -64.3677  
139.2                   0.248343        -64.7907  
139.4                   0.246809        -65.2148  
139.6                   0.245256          -65.64  
139.8                   0.243683        -66.0662  
140                      0.24209        -66.4936  
140.2                   0.240478        -66.9221  
140.4                   0.238845        -67.3517  
140.6                   0.237191        -67.7826  
140.8                   0.235517        -68.2146  
141                     0.233821        -68.6477  
141.2                   0.232104         -69.082  
141.4                   0.230365        -69.5175  
141.6                   0.228605        -69.9541  
141.8                   0.226823        -70.3919  
142                     0.225018        -70.8307  
142.2                   0.223192        -71.2705  
142.4                   0.221343        -71.7114  
142.6                   0.219472        -72.1534  
142.8                   0.217578        -72.5963  
143                     0.215662        -73.0401  
143.2                   0.213724        -73.4848  
143.4                   0.211763        -73.9303  
143.6                   0.209781        -74.3766  
143.8                   0.207776        -74.8237  
144                     0.205749        -75.2715  
144.2                     0.2037        -75.7199  
144.4                   0.201629        -76.1689  
144.6                   0.199537        -76.6185  
144.8                   0.197424        -77.0686  
145                      0.19529        -77.5191  
145.2                   0.193135          -77.97  
145.4                    0.19096        -78.4213  
145.6                   0.188764        -78.8729  
145.8                   0.186549        -79.3248  
146                     0.184314        -79.7769  
146.2                   0.182061        -80.2293  
146.4                   0.179789        -80.6819  
146.6                   0.177498        -81.1346  
146.8                    0.17519        -81.5875  
147                     0.172864        -82.0405  
147.2                   0.170522        -82.4936  
147.4                   0.168163        -82.9469  
147.6                   0.165787        -83.4003  
147.8                   0.163397        -83.8539  
148                     0.160991        -84.3077  
148.2                   0.158571        -84.7618  
148.4                   0.156136        -85.2161  
148.6                   0.153688        -85.6708  
148.8                   0.151226         -86.126  
149                     0.148752        -86.5816  
149.2                   0.146266        -87.0379  
149.4                   0.143767        -87.4949  
149.6                   0.141257        -87.9528  
149.8                   0.138737        -88.4118  
150                     0.136205         -88.872  
150.2                   0.133663        -89.3336  
150.4                   0.131112        -89.7969  
150.6                   0.128551        -90.2621  
150.8                   0.125981        -90.7294  
151                     0.123402        -91.1992  
151.2                   0.120815        -91.6718  
151.4                    0.11822        -92.1476  
151.6                   0.115616        -92.6271  
151.8                   0.113006        -93.1105  
152                     0.110387        -93.5986  
152.2                   0.107762        -94.0918  
152.4                    0.10513        -94.5908  
152.6                   0.102491        -95.0962  
152.8                  0.0998454        -95.6087  
153                    0.0971933        -96.1294  
153.2                   0.094535         -96.659  
153.4                  0.0918705        -97.1987  
153.6                  0.0891998        -97.7496  
153.8                  0.0865232         -98.313  
154                    0.0838407        -98.8905  
154.2                  0.0811523        -99.4837  
154.4                  0.0784582        -100.094  
154.6                  0.0757584        -100.725  
154.8                  0.0730531        -101.378  
155                    0.0703424        -102.056  
155.2                  0.0676264        -102.763  
155.4                  0.0649053        -103.502  
155.6                  0.0621794        -104.278  
155.8                   0.059449        -105.096  
156                    0.0567146        -105.964  
156.2                  0.0539766        -106.888  
156.4                  0.0512358        -107.878  
156.6                  0.0484931        -108.945  
156.8                  0.0457497        -110.105  
157                    0.0430072        -111.374  
157.2                  0.0402678        -112.775  
157.4                  0.0375341        -114.337  
157.6                    0.03481        -116.099  
157.8                  0.0321006        -118.109  
158                     0.029413        -120.436  
158.2                  0.0267574         -123.17  
158.4                  0.0241482         -126.44  
158.6                  0.0216069        -130.426  
158.8                   0.019166        -135.381  
159                    0.0168751        -141.659  
159.2                  0.0148116        -149.724  
159.4                  0.0130918        -160.083  
159.6                  0.0118757        -173.009  
159.8                  0.0113366         172.012  
160                    0.0115797         156.583  
160.2                  0.0125689         142.599  
160.4                  0.0141568          131.08  
160.6                  0.0161754          122.03  
160.8                  0.0184904         114.995  
161                    0.0210097         109.474  
161.2                   0.023673         105.064  
161.4                  0.0264412         101.468  
161.6                  0.0292885         98.4761  
161.8                  0.0321974         95.9407  
162                    0.0351556         93.7553  
162.2                  0.0381544         91.8427  
162.4                  0.0411876         90.1463  
162.6                  0.0442501         88.6234  
162.8                  0.0473384         87.2414  
163                    0.0504493         85.9755  
163.2                  0.0535806         84.8059  
163.4                  0.0567303         83.7172  
163.6                  0.0598966         82.6968  
163.8                   0.063078         81.7347  
164                    0.0662733         80.8226  
164.2                  0.0694813         79.9537  
164.4                  0.0727009         79.1224  
164.6                  0.0759312         78.3241  
164.8                  0.0791711         77.5545  
165                    0.0824198         76.8105  
165.2                  0.0856764         76.0891  
165.4                  0.0889401         75.3879  
165.6                  0.0922102         74.7049  
165.8                  0.0954858         74.0381  