! TOUCHSTONE file generated by CST MICROWAVE STUDIO
! Date and time: Thu Mar 16 10:24:16 2017
! Project name: HERA CST model - REF - 10-350MHz - 67Mc.cst
! Header version: 2015
! Port assignment regex: !\s*Touchstone port\s*([0-9]+)\s*=\s*CST MWS port\s*([0-9]+)\s*\(\"(.*)\"\)(\s*mode\s*([0-9]+))?.*
! Touchstone port assignment:
! Touchstone port 1 = CST MWS port 1 ("")
# MHZ S MA R 100
10                      0.999863        -7.43673  
10.34                   0.999875        -7.69332  
10.68                   0.999866        -7.95062  
11.02                   0.999836        -8.20757  
11.36                   0.999799        -8.46352  
11.7                    0.999774        -8.71863  
12.04                   0.999772        -8.97374  
12.38                   0.999788        -9.22991  
12.72                   0.999808         -9.4877  
13.06                   0.999815        -9.74684  
13.4                    0.999798        -10.0064  
13.74                   0.999765        -10.2655  
14.08                   0.999731        -10.5237  
14.42                   0.999713        -10.7814  
14.76                   0.999717        -11.0394  
15.1                    0.999736        -11.2988  
15.44                   0.999753        -11.5599  
15.78                   0.999752        -11.8222  
16.12                    0.99973        -12.0846  
16.46                   0.999696        -12.3465  
16.8                    0.999666        -12.6077  
17.14                   0.999655        -12.8686  
17.48                   0.999664        -13.1304  
17.82                   0.999683        -13.3938  
18.16                   0.999694        -13.6587  
18.5                    0.999687        -13.9247  
18.84                    0.99966        -14.1907  
19.18                   0.999625        -14.4561  
19.52                   0.999601        -14.7209  
19.86                   0.999596         -14.986  
20.2                    0.999608        -15.2523  
20.54                   0.999625        -15.5202  
20.88                    0.99963        -15.7897  
21.22                   0.999615          -16.06  
21.56                   0.999585        -16.3302  
21.9                    0.999552        -16.5998  
22.24                   0.999533        -16.8692  
22.58                   0.999533        -17.1393  
22.92                   0.999547        -17.4108  
23.26                    0.99956        -17.6841  
23.6                    0.999558        -17.9588  
23.94                   0.999537        -18.2341  
24.28                   0.999504        -18.5091  
24.62                   0.999475        -18.7839  
24.96                   0.999461        -19.0588  
25.3                    0.999466        -19.3347  
25.64                   0.999479        -19.6122  
25.98                   0.999487        -19.8916  
26.32                   0.999478        -20.1722  
26.66                   0.999451        -20.4533  
27                      0.999418        -20.7341  
27.34                   0.999393        -21.0149  
27.68                   0.999385        -21.2962  
28.02                   0.999393        -21.5789  
28.36                   0.999404        -21.8635  
28.7                    0.999406        -22.1498  
29.04                    0.99939        -22.4372  
29.38                    0.99936        -22.7249  
29.72                   0.999328        -23.0125  
30.06                   0.999308        -23.3004  
30.4                    0.999304        -23.5892  
30.74                   0.999313        -23.8797  
31.08                   0.999321        -24.1722  
31.42                   0.999316        -24.4663  
31.76                   0.999294        -24.7614  
32.1                    0.999262        -25.0568  
32.44                   0.999232        -25.3524  
32.78                   0.999216        -25.6485  
33.12                   0.999216         -25.946  
33.46                   0.999224        -26.2454  
33.8                    0.999227        -26.5469  
34.14                   0.999215        -26.8499  
34.48                   0.999188        -27.1538  
34.82                   0.999156        -27.4581  
35.16                   0.999129        -27.7628  
35.5                    0.999117        -28.0685  
35.84                   0.999119        -28.3759  
36.18                   0.999123        -28.6855  
36.52                    0.99912        -28.9971  
36.86                   0.999101        -29.3102  
37.2                    0.999071        -29.6241  
37.54                   0.999039        -29.9385  
37.88                   0.999017        -30.2538  
38.22                    0.99901        -30.5705  
38.56                   0.999013        -30.8893  
38.9                    0.999015        -31.2104  
39.24                   0.999006        -31.5336  
39.58                   0.998981        -31.8583  
39.92                   0.998948        -32.1838  
40.26                   0.998918        -32.5101  
40.6                      0.9989        -32.8376  
40.94                   0.998896         -33.167  
41.28                   0.998899        -33.4987  
41.62                   0.998897         -33.833  
41.96                   0.998881        -34.1694  
42.3                    0.998853        -34.5072  
42.64                    0.99882        -34.8461  
42.98                   0.998793        -35.1862  
43.32                   0.998779        -35.5278  
43.66                   0.998777        -35.8719  
44                      0.998777        -36.2186  
44.34                    0.99877         -36.568  
44.68                   0.998749        -36.9195  
45.02                   0.998718        -37.2726  
45.36                   0.998685         -37.627  
45.7                    0.998661        -37.9831  
46.04                    0.99865        -38.3413  
46.38                   0.998647        -38.7022  
46.72                   0.998643        -39.0662  
47.06                   0.998629         -39.433  
47.4                      0.9986         -39.802  
47.74                   0.998564        -40.1728  
48.08                    0.99853        -40.5453  
48.42                   0.998507          -40.92  
48.76                   0.998494        -41.2973  
49.1                    0.998487        -41.6779  
49.44                   0.998475        -42.0617  
49.78                    0.99845        -42.4485  
50.12                   0.998413        -42.8378  
50.46                   0.998372        -43.2291  
50.8                    0.998335        -43.6226  
51.14                    0.99831        -44.0189  
51.48                   0.998295        -44.4184  
51.82                   0.998281        -44.8217  
52.16                    0.99826        -45.2286  
52.5                    0.998226        -45.6387  
52.84                   0.998182        -46.0516  
53.18                   0.998136        -46.4672  
53.52                   0.998097        -46.8856  
53.86                   0.998069        -47.3075  
54.2                    0.998047        -47.7333  
54.54                   0.998023        -48.1634  
54.88                   0.997987        -48.5976  
55.22                   0.997939        -49.0354  
55.56                   0.997882        -49.4765  
55.9                    0.997825        -49.9209  
56.24                   0.997777        -50.3689  
56.58                   0.997737        -50.8212  
56.92                     0.9977        -51.2782  
57.26                   0.997658        -51.7402  
57.6                    0.997603        -52.2068  
57.94                   0.997536        -52.6777  
58.28                   0.997462        -53.1527  
58.62                   0.997389         -53.632  
58.96                   0.997323         -54.116  
59.3                     0.99726        -54.6054  
59.64                   0.997195        -55.1005  
59.98                   0.997119        -55.6014  
60.32                   0.997029        -56.1079  
60.66                   0.996925        -56.6197  
61                      0.996813        -57.1368  
61.34                   0.996701        -57.6597  
61.68                   0.996586        -58.1889  
62.02                   0.996464         -58.725  
62.36                   0.996323        -59.2682  
62.7                    0.996157        -59.8183  
63.04                   0.995965         -60.375  
63.38                   0.995752        -60.9382  
63.72                   0.995526        -61.5083  
64.06                   0.995288         -62.086  
64.4                    0.995034        -62.6721  
64.74                   0.994749        -63.2672  
65.08                   0.994418        -63.8715  
65.42                   0.994029        -64.4846  
65.76                   0.993579        -65.1061  
66.1                    0.993071        -65.7358  
66.44                   0.992509        -66.3742  
66.78                   0.991889        -67.0219  
67.12                   0.991198        -67.6799  
67.46                   0.990411        -68.3486  
67.8                    0.989502        -69.0276  
68.14                   0.988449         -69.716  
68.48                   0.987241        -70.4125  
68.82                   0.985874        -71.1162  
69.16                   0.984348         -71.826  
69.5                    0.982657        -72.5416  
69.84                    0.98079         -73.262  
70.18                   0.978734        -73.9858  
70.52                   0.976483        -74.7106  
70.86                   0.974045        -75.4336  
71.2                    0.971452        -76.1517  
71.54                   0.968755        -76.8625  
71.88                    0.96602        -77.5647  
72.22                   0.963315        -78.2583  
72.56                   0.960705        -78.9442  
72.9                    0.958247        -79.6242  
73.24                   0.955991        -80.3008  
73.58                   0.953981         -80.977  
73.92                    0.95225        -81.6567  
74.26                   0.950816        -82.3441  
74.6                    0.949677        -83.0441  
74.94                    0.94881        -83.7611  
75.28                   0.948171        -84.4987  
75.62                   0.947707        -85.2593  
75.96                   0.947367        -86.0441  
76.3                    0.947111        -86.8531  
76.64                   0.946913        -87.6866  
76.98                   0.946755        -88.5446  
77.32                   0.946619        -89.4277  
77.66                   0.946485        -90.3367  
78                      0.946327        -91.2718  
78.34                   0.946121        -92.2331  
78.68                   0.945847          -93.22  
79.02                     0.9455        -94.2319  
79.36                   0.945081        -95.2685  
79.7                    0.944596        -96.3304  
80.04                   0.944046        -97.4185  
80.38                   0.943425         -98.534  
80.72                   0.942716        -99.6779  
81.06                   0.941901        -100.851  
81.4                    0.940971        -102.052  
81.74                   0.939923        -103.282  
82.08                   0.938764        -104.542  
82.42                   0.937505        -105.832  
82.76                   0.936147        -107.154  
83.1                    0.934683         -108.51  
83.44                   0.933097        -109.901  
83.78                   0.931371         -111.33  
84.12                   0.929493        -112.796  
84.46                    0.92746        -114.301  
84.8                    0.925278        -115.846  
85.14                   0.922952        -117.432  
85.48                   0.920478        -119.064  
85.82                   0.917842        -120.745  
86.16                   0.915015        -122.476  
86.5                    0.911966        -124.262  
86.84                   0.908665        -126.103  
87.18                   0.905088        -128.003  
87.52                   0.901221        -129.963  
87.86                   0.897048        -131.987  
88.2                    0.892546        -134.079  
88.54                   0.887679        -136.243  
88.88                   0.882402        -138.484  
89.22                    0.87666        -140.805  
89.56                   0.870397        -143.211  
89.9                    0.863562        -145.705  
90.24                   0.856104        -148.293  
90.58                   0.847966        -150.978  
90.92                    0.83908        -153.768  
91.26                   0.829361        -156.668  
91.6                    0.818706        -159.685  
91.94                   0.807002        -162.824  
92.28                   0.794129         -166.09  
92.62                   0.779971        -169.486  
92.96                   0.764415        -173.017  
93.3                    0.747353        -176.684  
93.64                   0.728677         179.509  
93.98                   0.708282         175.561  
94.32                   0.686069         171.472  
94.66                   0.661954         167.245  
95                      0.635883         162.887  
95.34                   0.607849         158.407  
95.68                   0.577895          153.82  
96.02                    0.54613         149.144  
96.36                   0.512725         144.402  
96.7                    0.477911         139.622  
97.04                   0.441978         134.836  
97.38                   0.405263         130.086  
97.72                   0.368148         125.419  
98.06                   0.331041         120.897  
98.4                    0.294369         116.594  
98.74                    0.25855         112.605  
99.08                   0.223986         109.055  
99.42                   0.191046         106.123  
99.76                   0.160083         104.079  
100.1                   0.131471         103.356  
100.44                  0.105708         104.685  
100.78                 0.0836218         109.278  
101.12                 0.0667024         118.815  
101.46                 0.0572167         134.007  
101.8                  0.0567328         151.222  
102.14                 0.0637097          164.48  
102.48                 0.0747891         172.037  
102.82                 0.0874468         175.321  
103.16                  0.100369         175.913  
103.5                   0.112961         174.849  
103.84                   0.12499         172.742  
104.18                  0.136394         169.953  
104.52                  0.147194         166.699  
104.86                  0.157439         163.121  
105.2                   0.167187          159.31  
105.54                  0.176499         155.335  
105.88                  0.185439         151.249  
106.22                  0.194077         147.091  
106.56                  0.202486         142.895  
106.9                   0.210741         138.681  
107.24                  0.218901         134.465  
107.58                  0.227012         130.259  
107.92                  0.235094         126.072  
108.26                  0.243157         121.915  
108.6                   0.251204         117.803  
108.94                   0.25925         113.749  
109.28                  0.267323         109.766  
109.62                   0.27547         105.862  
109.96                  0.283743         102.038  
110.3                   0.292187         98.2892  
110.64                   0.30082         94.6065  
110.98                  0.309629         90.9808  
111.32                  0.318571         87.4053  
111.66                  0.327588         83.8784  
112                     0.336621         80.4027  
112.34                  0.345631          76.984  
112.68                  0.354604         73.6275  
113.02                  0.363549         70.3363  
113.36                  0.372486         67.1091  
113.7                   0.381434         63.9412  
114.04                  0.390396         60.8254  
114.38                  0.399354         57.7544  
114.72                  0.408274         54.7225  
115.06                  0.417114         51.7264  
115.4                   0.425838         48.7649  
115.74                   0.43442         45.8373  
116.08                  0.442847         42.9429  
116.42                   0.45111         40.0796  
116.76                  0.459201         37.2441  
117.1                   0.467105         34.4324  
117.44                  0.474794         31.6405  
117.78                  0.482236         28.8658  
118.12                  0.489395         26.1066  
118.46                  0.496244         23.3624  
118.8                   0.502767         20.6328  
119.14                  0.508953         17.9167  
119.48                    0.5148         15.2122  
119.82                  0.520301          12.516  
120.16                  0.525441         9.82418  
120.5                   0.530196         7.13289  
120.84                  0.534529         4.43888  
121.18                  0.538402         1.73989  
121.52                  0.541779       -0.965334  
121.86                  0.544626         -3.6776  
122.2                   0.546921         -6.3976  
122.54                  0.548643        -9.12654  
122.88                  0.549773        -11.8661  
123.22                  0.550289        -14.6186  
123.56                  0.550164        -17.3862  
123.9                   0.549365        -20.1711  
124.24                  0.547858        -22.9746  
124.58                  0.545609        -25.7976  
124.92                   0.54259        -28.6406  
125.26                  0.538781        -31.5037  
125.6                   0.534166        -34.3876  
125.94                  0.528731        -37.2931  
126.28                  0.522466        -40.2215  
126.62                   0.51536         -43.174  
126.96                  0.507404        -46.1524  
127.3                   0.498589        -49.1581  
127.64                   0.48891        -52.1933  
127.98                  0.478364        -55.2601  
128.32                  0.466945        -58.3615  
128.66                  0.454645         -61.501  
129                     0.441447        -64.6818  
129.34                  0.427333        -67.9062  
129.68                  0.412284        -71.1747  
130.02                  0.396292        -74.4852  
130.36                   0.37937        -77.8327  
130.7                   0.361562        -81.2101  
131.04                  0.342947        -84.6094  
131.38                  0.323632        -88.0239  
131.72                   0.30375          -91.45  
132.06                  0.283439        -94.8898  
132.4                   0.262834        -98.3529  
132.74                  0.242052        -101.858  
133.08                  0.221185        -105.433  
133.42                  0.200301        -109.119  
133.76                  0.179449        -112.972  
134.1                   0.158672        -117.074  
134.44                  0.138013        -121.541  
134.78                  0.117539        -126.566  
135.12                 0.0973601        -132.484  
135.46                 0.0776844        -139.944  
135.8                   0.058947        -150.344  
136.14                 0.0422428        -167.008  
136.48                  0.030703         163.247  
136.82                 0.0303419         122.028  
137.16                 0.0410146         91.9586  
137.5                  0.0564302         75.1207  
137.84                  0.073333         64.6511  
138.18                 0.0905923         57.1683  
138.52                  0.107758         51.2503  
138.86                  0.124612         46.2428  
139.2                   0.141034         41.8119  
139.54                  0.156952         37.7713  
139.88                  0.172325         34.0082  
140.22                  0.187125         30.4492  
140.56                  0.201335         27.0436  
140.9                   0.214935         23.7553  
141.24                  0.227903         20.5586  
141.58                  0.240218         17.4366  
141.92                  0.251865         14.3788  
142.26                  0.262844         11.3786  
142.6                   0.273176         8.43029  
142.94                  0.282897         5.52582  
143.28                  0.292048         2.65364  
143.62                  0.300655       -0.201429  
143.96                  0.308715         -3.0553  
144.3                   0.316187        -5.92114  
144.64                  0.323001        -8.80583  
144.98                  0.329084        -11.7081  
145.32                  0.334384        -14.6196  
145.66                  0.338896        -17.5289  
146                      0.34267        -20.4263  
146.34                  0.345797        -23.3094  
146.68                   0.34838        -26.1849  
147.02                  0.350497        -29.0686  
147.36                  0.352167        -31.9805  
147.7                   0.353351        -34.9386  
148.04                  0.353961        -37.9539  
148.38                  0.353902        -41.0271  
148.72                   0.35311        -44.1499  
149.06                  0.351579        -47.3094  
149.4                   0.349367         -50.494  
149.74                  0.346579        -53.6989  
150.08                  0.343335        -56.9284  
150.42                  0.339734        -60.1959  
150.76                  0.335831        -63.5195  
151.1                   0.331638        -66.9175  
151.44                  0.327139        -70.4041  
151.78                  0.322315        -73.9877  
152.12                  0.317167        -77.6724  
152.46                  0.311726         -81.461  
152.8                   0.306052        -85.3581  
153.14                  0.300216        -89.3722  
153.48                  0.294284        -93.5155  
153.82                  0.288316        -97.8017  
154.16                  0.282359        -102.243  
154.5                   0.276463        -106.849  
154.84                  0.270691        -111.625  
155.18                  0.265128        -116.573  
155.52                  0.259875        -121.695  
155.86                  0.255048        -126.994  
156.2                   0.250756         -132.47  
156.54                  0.247096        -138.123  
156.88                  0.244148        -143.945  
157.22                  0.241975        -149.922  
157.56                  0.240633        -156.028  
157.9                   0.240175         -162.23  
158.24                  0.240654        -168.488  
158.58                  0.242119        -174.762  
158.92                  0.244605         178.982  
159.26                  0.248119         172.777  
159.6                   0.252634         166.646  
159.94                   0.25808          160.61  
160.28                  0.264353         154.687  
160.62                  0.271327         148.896  
160.96                  0.278867         143.252  
161.3                   0.286845         137.771  
161.64                   0.29515         132.463  
161.98                  0.303685         127.335  
162.32                   0.31237         122.386  
162.66                  0.321127         117.615  
163                     0.329882         113.015  
163.34                  0.338566          108.58  
163.68                  0.347116         104.302  
164.02                   0.35548         100.173  
164.36                  0.363624         96.1873  
164.7                   0.371522         92.3336  
165.04                  0.379148         88.6006  
165.38                   0.38647         84.9754  
165.72                  0.393439         81.4461  
166.06                  0.399993         78.0024  
166.4                   0.406063         74.6371  
166.74                  0.411586         71.3461  
167.08                  0.416511         68.1269  
167.42                  0.420804         64.9777  
167.76                  0.424437          61.896  
168.1                   0.427387          58.879  
168.44                  0.429623         55.9238  
168.78                  0.431113         53.0293  
169.12                  0.431825         50.1957  
169.46                  0.431742          47.426  
169.8                   0.430866         44.7234  
170.14                  0.429222         42.0906  
170.48                  0.426844         39.5277  
170.82                  0.423762          37.033  
171.16                  0.419989         34.6035  
171.5                   0.415522          32.237  
171.84                  0.410346         29.9338  
172.18                  0.404452         27.6979  
172.52                  0.397848         25.5354  
172.86                  0.390566         23.4531  
173.2                   0.382651         21.4563  
173.54                   0.37415         19.5484  
173.88                  0.365093         17.7316  
174.22                  0.355492         16.0092  
174.56                  0.345348         14.3894  
174.9                   0.334672         12.8859  
175.24                  0.323501         11.5176  
175.58                  0.311908         10.3058  
175.92                   0.29999         9.27113  
176.26                  0.287849         8.43129  
176.6                   0.275569         7.80259  
176.94                  0.263213         7.40502  
177.28                   0.25083         7.26732  
177.62                  0.238489         7.43168  
177.96                  0.226312         7.95198  
178.3                   0.214482         8.88667  
178.64                  0.203233         10.2877  
178.98                  0.192811         12.1896  
179.32                  0.183436         14.6071  
179.66                  0.175282         17.5387  
180                     0.168507         20.9747  
180.34                  0.163298         24.8926  
180.68                  0.159903         29.2357  
181.02                  0.158609         33.8821  
181.36                  0.159643         38.6302  
181.7                   0.163053         43.2329  
182.04                  0.168652         47.4676  
182.38                  0.176072          51.202  
182.72                  0.184899         54.4114  
183.06                  0.194815          57.147  
183.4                   0.205675         59.4853  
183.74                  0.217491         61.4827  
184.08                  0.230349         63.1611  
184.42                  0.244302         64.5126  
184.76                  0.259293         65.5225  
185.1                   0.275149         66.1912  
185.44                   0.29163         66.5424  
185.78                  0.308509         66.6206  
186.12                  0.325636         66.4763  
186.46                  0.342956         66.1541  
186.8                   0.360484         65.6836  
187.14                  0.378253         65.0784  
187.48                  0.396264         64.3418  
187.82                  0.414449          63.475  
188.16                  0.432691          62.483  
188.5                   0.450848         61.3778  
188.84                    0.4688         60.1757  
189.18                  0.486467         58.8934  
189.52                  0.503811         57.5449  
189.86                  0.520816         56.1386  
190.2                   0.537453         54.6786  
190.54                  0.553668         53.1676  
190.88                  0.569382         51.6091  
191.22                  0.584502         50.0095  
191.56                  0.598953         48.3773  
191.9                   0.612687         46.7213  
192.24                  0.625691         45.0492  
192.58                  0.637967         43.3658  
192.92                   0.64952         41.6737  
193.26                  0.660334         39.9739  
193.6                   0.670379         38.2673  
193.94                  0.679614         36.5572  
194.28                   0.68801         34.8475  
194.62                  0.695558         33.1429  
194.96                  0.702273         31.4476  
195.3                   0.708182         29.7636  
195.64                  0.713311         28.0913  
195.98                  0.717669         26.4303  
196.32                  0.721251           24.78  
196.66                  0.724036         23.1412  
197                     0.726012         21.5157  
197.34                  0.727176         19.9062  
197.68                  0.727545         18.3153  
198.02                  0.727143          16.744  
198.36                  0.725991         15.1925  
198.7                   0.724095           13.66  
199.04                  0.721441         12.1466  
199.38                  0.718009         10.6533  
199.72                   0.71378         9.18272  
200.06                  0.708749         7.73844  
200.4                   0.702926         6.32421  
200.74                  0.696329         4.94352  
201.08                  0.688976         3.59847  
201.42                  0.680872         2.29188  
201.76                  0.672007         1.02693  
202.1                   0.662372       -0.190702  
202.44                  0.651962        -1.35315  
202.78                  0.640797        -2.45067  
203.12                  0.628922        -3.47203  