! TOUCHSTONE file generated by CST MICROWAVE STUDIO
! Date and time: Thu Dec 15 13:15:01 2016
! Project name: HERA CST model - v1-LIGHT-6-2.cst
! Header version: 2015
! Port assignment regex: !\s*Touchstone port\s*([0-9]+)\s*=\s*CST MWS port\s*([0-9]+)\s*\(\"(.*)\"\)(\s*mode\s*([0-9]+))?.*
! Touchstone port assignment:
! Touchstone port 1 = CST MWS port 1 ("")
# MHZ S MA R 100
50                      0.997993        -44.7741  
50.2                    0.997868        -45.0006  
50.4                    0.997771        -45.2268  
50.6                    0.997707        -45.4531  
50.8                    0.997677        -45.6799  
51                      0.997682        -45.9076  
51.2                    0.997721        -46.1368  
51.4                     0.99779        -46.3679  
51.6                    0.997886        -46.6013  
51.8                    0.998003        -46.8372  
52                      0.998133        -47.0759  
52.2                    0.998269        -47.3176  
52.4                    0.998404        -47.5623  
52.6                    0.998529          -47.81  
52.8                    0.998637        -48.0604  
53                      0.998723        -48.3133  
53.2                     0.99878        -48.5685  
53.4                    0.998805        -48.8255  
53.6                    0.998796        -49.0839  
53.8                    0.998753        -49.3433  
54                      0.998677        -49.6033  
54.2                     0.99857        -49.8634  
54.4                    0.998438        -50.1235  
54.6                    0.998286        -50.3831  
54.8                    0.998121        -50.6421  
55                      0.997949        -50.9003  
55.2                    0.997779        -51.1579  
55.4                    0.997618        -51.4148  
55.6                    0.997473        -51.6713  
55.8                     0.99735        -51.9276  
56                      0.997254        -52.1842  
56.2                    0.997189        -52.4413  
56.4                    0.997155        -52.6994  
56.6                    0.997154         -52.959  
56.8                    0.997183        -53.2205  
57                      0.997241        -53.4843  
57.2                    0.997322        -53.7509  
57.4                     0.99742        -54.0204  
57.6                    0.997529        -54.2931  
57.8                    0.997642        -54.5691  
58                      0.997751        -54.8485  
58.2                    0.997849        -55.1311  
58.4                    0.997929        -55.4169  
58.6                    0.997985        -55.7056  
58.8                    0.998013        -55.9969  
59                      0.998009        -56.2905  
59.2                    0.997971        -56.5859  
59.4                    0.997899        -56.8828  
59.6                    0.997795        -57.1808  
59.8                    0.997662        -57.4795  
60                      0.997504        -57.7787  
60.2                    0.997326        -58.0781  
60.4                    0.997135        -58.3775  
60.6                    0.996938        -58.6769  
60.8                    0.996741        -58.9764  
61                      0.996553        -59.2761  
61.2                    0.996378        -59.5761  
61.4                    0.996223        -59.8767  
61.6                    0.996092        -60.1784  
61.8                    0.995987        -60.4815  
62                       0.99591        -60.7865  
62.2                     0.99586        -61.0939  
62.4                    0.995836         -61.404  
62.6                    0.995833        -61.7173  
62.8                    0.995847        -62.0342  
63                      0.995872        -62.3548  
63.2                      0.9959        -62.6796  
63.4                    0.995925        -63.0085  
63.6                    0.995937        -63.3417  
63.8                    0.995931         -63.679  
64                      0.995898        -64.0203  
64.2                    0.995833        -64.3654  
64.4                    0.995731         -64.714  
64.6                    0.995587        -65.0659  
64.8                    0.995401        -65.4205  
65                       0.99517        -65.7777  
65.2                    0.994897         -66.137  
65.4                    0.994582         -66.498  
65.6                     0.99423        -66.8607  
65.8                    0.993845        -67.2247  
66                      0.993432        -67.5899  
66.2                    0.992996        -67.9564  
66.4                    0.992542        -68.3241  
66.6                    0.992076        -68.6933  
66.8                    0.991602        -69.0641  
67                      0.991122        -69.4368  
67.2                    0.990637        -69.8118  
67.4                    0.990149        -70.1894  
67.6                    0.989654        -70.5701  
67.8                     0.98915        -70.9542  
68                      0.988631        -71.3419  
68.2                     0.98809        -71.7336  
68.4                     0.98752        -72.1295  
68.6                    0.986912        -72.5296  
68.8                    0.986255        -72.9339  
69                       0.98554        -73.3422  
69.2                    0.984758        -73.7542  
69.4                      0.9839        -74.1695  
69.6                    0.982959        -74.5876  
69.8                    0.981929        -75.0078  
70                      0.980806        -75.4294  
70.2                     0.97959        -75.8516  
70.4                    0.978281        -76.2735  
70.6                    0.976884        -76.6944  
70.8                    0.975406        -77.1133  
71                      0.973857        -77.5297  
71.2                    0.972248        -77.9426  
71.4                    0.970594        -78.3517  
71.6                    0.968912        -78.7565  
71.8                    0.967218        -79.1567  
72                      0.965531        -79.5522  
72.2                    0.963869        -79.9431  
72.4                    0.962252        -80.3297  
72.6                    0.960695        -80.7126  
72.8                    0.959216        -81.0922  
73                      0.957827        -81.4695  
73.2                    0.956541        -81.8454  
73.4                    0.955367        -82.2209  
73.6                    0.954309        -82.5971  
73.8                    0.953372        -82.9751  
74                      0.952553        -83.3562  
74.2                    0.951852        -83.7414  
74.4                     0.95126        -84.1317  
74.6                    0.950771         -84.528  
74.8                    0.950374        -84.9313  
75                      0.950057        -85.3422  
75.2                    0.949807        -85.7612  
75.4                    0.949612        -86.1887  
75.6                    0.949458        -86.6248  
75.8                    0.949334        -87.0698  
76                      0.949226        -87.5235  
76.2                    0.949126        -87.9858  
76.4                    0.949026        -88.4566  
76.6                    0.948917        -88.9354  
76.8                    0.948797        -89.4219  
77                      0.948661         -89.916  
77.2                    0.948509        -90.4172  
77.4                    0.948342        -90.9254  
77.6                    0.948161        -91.4403  
77.8                     0.94797        -91.9619  
78                      0.947771        -92.4901  
78.2                    0.947569         -93.025  
78.4                    0.947367        -93.5668  
78.6                    0.947168        -94.1158  
78.8                    0.946975        -94.6723  
79                       0.94679        -95.2367  
79.2                     0.94661        -95.8094  
79.4                    0.946436         -96.391  
79.6                    0.946264        -96.9819  
79.8                     0.94609        -97.5825  
80                      0.945907        -98.1933  
80.2                    0.945709        -98.8147  
80.4                    0.945489        -99.4468  
80.6                    0.945237         -100.09  
80.8                    0.944946        -100.744  
81                      0.944606        -101.409  
81.2                    0.944212        -102.086  
81.4                    0.943755        -102.773  
81.6                    0.943231         -103.47  
81.8                    0.942634        -104.178  
82                      0.941964        -104.897  
82.2                    0.941218        -105.624  
82.4                    0.940398        -106.362  
82.6                    0.939507        -107.108  
82.8                     0.93855        -107.864  
83                      0.937531        -108.629  
83.2                    0.936457        -109.402  
83.4                    0.935336        -110.185  
83.6                    0.934175        -110.977  
83.8                    0.932982        -111.779  
84                      0.931762        -112.592  
84.2                    0.930522        -113.415  
84.4                    0.929267         -114.25  
84.6                    0.927998        -115.097  
84.8                    0.926716        -115.958  
85                       0.92542        -116.834  
85.2                    0.924107        -117.725  
85.4                     0.92277        -118.632  
85.6                    0.921401        -119.557  
85.8                    0.919991          -120.5  
86                      0.918528        -121.462  
86.2                       0.917        -122.444  
86.4                    0.915393        -123.447  
86.6                    0.913694         -124.47  
86.8                    0.911889        -125.515  
87                      0.909965        -126.581  
87.2                    0.907908         -127.67  
87.4                     0.90571         -128.78  
87.6                    0.903359        -129.913  
87.8                    0.900847        -131.067  
88                       0.89817        -132.244  
88.2                    0.895322        -133.444  
88.4                    0.892302        -134.666  
88.6                    0.889108        -135.911  
88.8                    0.885739        -137.179  
89                      0.882198        -138.471  
89.2                    0.878485        -139.788  
89.4                      0.8746         -141.13  
89.6                    0.870544        -142.499  
89.8                    0.866316        -143.895  
90                      0.861911        -145.322  
90.2                    0.857324        -146.779  
90.4                    0.852545         -148.27  
90.6                    0.847562        -149.795  
90.8                    0.842359        -151.357  
91                      0.836915        -152.959  
91.2                    0.831207        -154.602  
91.4                    0.825206        -156.288  
91.6                    0.818883        -158.019  
91.8                    0.812202        -159.797  
92                      0.805126        -161.624  
92.2                    0.797617        -163.501  
92.4                    0.789634         -165.43  
92.6                    0.781138        -167.412  
92.8                    0.772087        -169.447  
93                      0.762443        -171.536  
93.2                    0.752169        -173.679  
93.4                    0.741231        -175.877  
93.6                    0.729598        -178.127  
93.8                    0.717245         179.569  
94                      0.704151         177.213  
94.2                      0.6903         174.807  
94.4                    0.675684         172.351  
94.6                    0.660299         169.848  
94.8                     0.64415         167.299  
95                      0.627248         164.707  
95.2                    0.609611         162.074  
95.4                    0.591263         159.402  
95.6                    0.572237         156.695  
95.8                     0.55257         153.956  
96                      0.532306         151.188  
96.2                    0.511495         148.394  
96.4                    0.490193         145.579  
96.6                     0.46846         142.747  
96.8                    0.446359         139.902  
97                      0.423958          137.05  
97.2                    0.401329         134.197  
97.4                    0.378543         131.348  
97.6                    0.355674         128.512  
97.8                      0.3328         125.697  
98                      0.309994         122.913  
98.2                    0.287332         120.173  
98.4                    0.264889         117.492  
98.6                    0.242739         114.889  
98.8                    0.220953         112.388  
99                      0.199604         110.022  
99.2                    0.178762         107.835  
99.4                    0.158499         105.887  
99.6                    0.138888         104.268  
99.8                    0.120012         103.109  
100                     0.101971         102.618  
100.2                     0.0849         103.135  
100.4                  0.0690092         105.247  
100.6                  0.0546713         109.998  
100.8                  0.0426142          119.19  
101                    0.0342378         135.074  
101.2                  0.0314446         156.786  
101.4                  0.0346357         176.828  
101.6                   0.041746        -170.055  
101.8                  0.0506001        -162.802  
102                    0.0599981        -159.169  
102.2                  0.0693783         -157.68  
102.4                  0.0784782        -157.502  
102.6                  0.0871742        -158.166  
102.8                   0.095411        -159.393  
103                      0.10317        -161.012  
103.2                   0.110453        -162.913  
103.4                   0.117275        -165.022  
103.6                   0.123659        -167.289  
103.8                   0.129632        -169.677  
104                     0.135225        -172.163  
104.2                   0.140471        -174.725  
104.4                   0.145402        -177.351  
104.6                   0.150052          179.97  
104.8                   0.154453         177.246  
105                     0.158637         174.482  
105.2                   0.162634         171.685  
105.4                   0.166474         168.858  
105.6                   0.170182         166.004  
105.8                   0.173784         163.126  
106                     0.177302         160.227  
106.2                   0.180759         157.309  
106.4                   0.184172         154.374  
106.6                   0.187558         151.427  
106.8                   0.190934         148.469  
107                     0.194311         145.503  
107.2                   0.197701         142.532  
107.4                   0.201115          139.56  
107.6                   0.204561          136.59  
107.8                   0.208047         133.626  
108                     0.211578         130.671  
108.2                    0.21516         127.729  
108.4                   0.218798         124.804  
108.6                   0.222494         121.898  
108.8                   0.226253         119.015  
109                     0.230078         116.159  
109.2                    0.23397         113.333  
109.4                   0.237932         110.538  
109.6                   0.241967         107.779  
109.8                   0.246077         105.056  
110                     0.250264         102.373  
110.2                    0.25453         99.7287  
110.4                   0.258878         97.1261  
110.6                   0.263309         94.5653  
110.8                   0.267826         92.0468  
111                     0.272431         89.5704  
111.2                   0.277125          87.136  
111.4                   0.281909         84.7427  
111.6                   0.286785         82.3898  
111.8                   0.291753          80.076  
112                     0.296811         77.8001  
112.2                    0.30196         75.5605  
112.4                   0.307196         73.3556  
112.6                   0.312518         71.1838  
112.8                   0.317921         69.0433  
113                     0.323401         66.9324  
113.2                   0.328951         64.8495  
113.4                   0.334565          62.793  
113.6                   0.340237         60.7614  
113.8                   0.345958         58.7534  
114                     0.351719         56.7676  
114.2                   0.357512          54.803  
114.4                   0.363329         52.8586  
114.6                   0.369159         50.9337  
114.8                   0.374993         49.0273  
115                     0.380824          47.139  
115.2                   0.386642         45.2683  
115.4                    0.39244         43.4147  
115.6                   0.398211         41.5778  
115.8                   0.403948         39.7574  
116                     0.409644         37.9531  
116.2                   0.415297         36.1645  
116.4                   0.420899         34.3913  
116.6                    0.42645         32.6332  
116.8                   0.431945         30.8897  
117                     0.437382         29.1602  
117.2                   0.442759         27.4442  
117.4                   0.448075         25.7411  
117.6                   0.453328         24.0502  
117.8                   0.458516         22.3706  
118                     0.463639         20.7014  
118.2                   0.468693         19.0417  
118.4                   0.473676         17.3907  
118.6                   0.478585         15.7471  
118.8                   0.483417         14.1102  
119                     0.488166         12.4788  
119.2                   0.492828         10.8519  
119.4                   0.497396          9.2287  
119.6                   0.501862         7.60819  
119.8                    0.50622         5.98957  
120                     0.510461         4.37205  
120.2                   0.514575         2.75502  
120.4                   0.518554         1.13787  
120.6                   0.522387       -0.479817  
120.8                   0.526065        -2.09852  
121                     0.529578        -3.71842  
121.2                   0.532915        -5.33974  
121.4                   0.536069        -6.96268  
121.6                   0.539029        -8.58712  
121.8                   0.541788        -10.2132  
122                     0.544338        -11.8407  
122.2                   0.546673        -13.4697  
122.4                   0.548786           -15.1  
122.6                   0.550672        -16.7315  
122.8                   0.552327        -18.3642  
123                     0.553747        -19.9979  
123.2                    0.55493        -21.6328  
123.4                   0.555874        -23.2688  
123.6                   0.556576         -24.906  
123.8                   0.557036        -26.5447  
124                     0.557252        -28.1851  
124.2                   0.557223        -29.8276  
124.4                   0.556947        -31.4725  
124.6                   0.556424        -33.1203  
124.8                   0.555651        -34.7716  
125                     0.554626         -36.427  
125.2                   0.553345        -38.0872  
125.4                   0.551804        -39.7527  
125.6                       0.55        -41.4243  
125.8                   0.547926        -43.1028  
126                     0.545576        -44.7887  
126.2                   0.542943        -46.4826  
126.4                   0.540019        -48.1852  
126.6                   0.536797         -49.897  
126.8                   0.533268        -51.6185  
127                     0.529423        -53.3499  
127.2                   0.525253        -55.0914  
127.4                   0.520751        -56.8433  
127.6                   0.515907        -58.6055  
127.8                   0.510716        -60.3779  
128                      0.50517        -62.1603  
128.2                   0.499263        -63.9523  
128.4                   0.492992        -65.7534  
128.6                   0.486354         -67.563  
128.8                   0.479347        -69.3805  
129                     0.471972        -71.2049  
129.2                   0.464232        -73.0354  
129.4                   0.456129        -74.8711  
129.6                    0.44767        -76.7109  
129.8                   0.438863        -78.5537  
130                     0.429716        -80.3984  
130.2                   0.420242        -82.2437  
130.4                   0.410452        -84.0887  
130.6                   0.400361        -85.9321  
130.8                   0.389985        -87.7729  
131                     0.379339        -89.6098  
131.2                   0.368443        -91.4419  
131.4                   0.357313        -93.2682  
131.6                   0.345969        -95.0879  
131.8                    0.33443        -96.9001  
132                     0.322716        -98.7041  
132.2                   0.310845        -100.499  
132.4                   0.298836        -102.285  
132.6                   0.286709        -104.062  
132.8                   0.274481        -105.829  
133                     0.262168        -107.585  
133.2                   0.249788        -109.333  
133.4                   0.237356         -111.07  
133.6                   0.224885        -112.799  
133.8                    0.21239        -114.518  
134                     0.199882         -116.23  
134.2                   0.187373        -117.935  
134.4                   0.174873        -119.633  
134.6                   0.162391        -121.327  
134.8                   0.149936        -123.017  
135                     0.137516        -124.705  
135.2                   0.125138        -126.393  
135.4                   0.112809        -128.085  
135.6                   0.100535        -129.783  
135.8                  0.0883226        -131.492  
136                    0.0761781        -133.222  
136.2                  0.0641075        -134.985  
136.4                  0.0521171        -136.808  
136.6                  0.0402136        -138.743  
136.8                  0.0284046        -140.935  
137                    0.0167013        -143.921  
137.2                 0.00515583        -153.035  
137.4                 0.00650483         44.7392  
137.6                  0.0178353         37.6825  
137.8                  0.0290747         34.8734  
138                    0.0401855         32.7434  
138.2                  0.0511567         30.8486  
138.4                  0.0619803         29.0643  
138.6                  0.0726489         27.3424  
138.8                   0.083156         25.6603  
139                    0.0934951         24.0063  
139.2                   0.103661         22.3736  
139.4                   0.113648         20.7583  
139.6                   0.123453          19.158  
139.8                   0.133071         17.5708  
140                     0.142499         15.9957  
140.2                   0.151737          14.432  
140.4                   0.160781         12.8788  
140.6                   0.169632         11.3358  
140.8                    0.17829         9.80218  
141                     0.186756         8.27746  
141.2                    0.19503         6.76105  
141.4                   0.203115         5.25218  
141.6                   0.211013         3.75014  
141.8                   0.218726         2.25411  
142                     0.226257        0.763103  
142.2                   0.233608       -0.723692  
142.4                   0.240781        -2.20737  
142.6                   0.247779        -3.68898  
142.8                   0.254603         -5.1696  
143                     0.261254        -6.65033  
143.2                   0.267735        -8.13226  
143.4                   0.274043        -9.61638  
143.6                    0.28018        -11.1038  
143.8                   0.286145        -12.5955  
144                     0.291935        -14.0923  
144.2                   0.297548        -15.5951  
144.4                   0.302983        -17.1047  
144.6                   0.308234        -18.6216  
144.8                     0.3133        -20.1466  
145                     0.318176        -21.6799  
145.2                   0.322858        -23.2221  
145.4                   0.327342        -24.7733  
145.6                   0.331625        -26.3338  
145.8                   0.335701        -27.9037  
146                     0.339568        -29.4832  
146.2                   0.343222         -31.072  
146.4                   0.346661        -32.6703  
146.6                   0.349882         -34.278  
146.8                   0.352883         -35.895  
147                     0.355664        -37.5211  
147.2                   0.358223        -39.1563  
147.4                   0.360561        -40.8008  
147.6                    0.36268        -42.4542  
147.8                   0.364579        -44.1168  
148                     0.366262        -45.7885  
148.2                    0.36773        -47.4697  
148.4                   0.368987        -49.1605  
148.6                   0.370036        -50.8613  
148.8                    0.37088        -52.5724  
149                     0.371525        -54.2945  
149.2                   0.371972         -56.028  
149.4                   0.372227        -57.7736  
149.6                   0.372294        -59.5321  
149.8                   0.372177        -61.3043  
150                      0.37188        -63.0911  
150.2                   0.371406        -64.8934  
150.4                    0.37076        -66.7123  
150.6                   0.369945        -68.5487  
150.8                   0.368964        -70.4039  
151                     0.367821        -72.2788  
151.2                   0.366518        -74.1747  
151.4                   0.365061        -76.0927  
151.6                    0.36345         -78.034  
151.8                    0.36169        -79.9997  
152                     0.359785        -81.9911  
152.2                   0.357737        -84.0093  
152.4                   0.355551        -86.0555  
152.6                   0.353232        -88.1309  
152.8                   0.350784        -90.2367  
153                     0.348213         -92.374  
153.2                   0.345524         -94.544  
153.4                   0.342724        -96.7481  
153.6                   0.339821        -98.9873  
153.8                   0.336822        -101.263  
154                     0.333737        -103.577  
154.2                   0.330573        -105.929  
154.4                   0.327343        -108.322  
154.6                   0.324057        -110.757  
154.8                   0.320725        -113.235  
155                     0.317361        -115.757  
155.2                   0.313977        -118.326  
155.4                   0.310587        -120.942  
155.6                   0.307205        -123.606  
155.8                   0.303845        -126.321  
156                     0.300522        -129.087  
156.2                   0.297252        -131.905  
156.4                   0.294049        -134.777  
156.6                    0.29093        -137.703  
156.8                    0.28791        -140.683  
157                     0.285006        -143.719  
157.2                   0.282233        -146.809  
157.4                   0.279607        -149.954  
157.6                   0.277143        -153.153  
157.8                   0.274856        -156.404  
158                     0.272761        -159.705  
158.2                    0.27087        -163.054  
158.4                   0.269197        -166.447  
158.6                   0.267753        -169.883  
158.8                   0.266548        -173.355  
159                     0.265592         -176.86  
159.2                   0.264891         179.607  
159.4                    0.26445         176.052  
159.6                   0.264275         172.481  
159.8                   0.264366         168.901  
160                     0.264723         165.317  
160.2                   0.265344         161.736  
160.4                   0.266226         158.164  
160.6                   0.267361         154.608  
160.8                   0.268742         151.074  
161                      0.27036         147.568  
161.2                   0.272204         144.095  
161.4                   0.274261          140.66  
161.6                    0.27652         137.268  
161.8                   0.278965         133.923  
162                     0.281583         130.628  
162.2                   0.284359         127.386  
162.4                   0.287278           124.2  
162.6                   0.290325         121.072  
162.8                   0.293485         118.003  
163                     0.296746         114.994  
163.2                   0.300092         112.046  
163.4                   0.303511         109.158  
163.6                   0.306991         106.332  
163.8                   0.310519         103.564  
164                     0.314085         100.857  
164.2                   0.317677         98.2064  
164.4                   0.321286         95.6129  
164.6                   0.324901         93.0741  
164.8                   0.328515         90.5885  
165                     0.332117         88.1541  
165.2                   0.335699          85.769  
165.4                   0.339251          83.431  
165.6                   0.342767         81.1381  
165.8                   0.346235         78.8879  